 argument  1 = /home/aditisingh4812/nw_chem/nwchem-run/nwchem-run/tddft/open/gdd_open/geom-MOL-2/bh2.nw
                                         
                                         


             Northwest Computational Chemistry Package (NWChem) 7.2.3
             --------------------------------------------------------


                    Environmental Molecular Sciences Laboratory
                       Pacific Northwest National Laboratory
                                Richland, WA 99352

                              Copyright (c) 1994-2022
                       Pacific Northwest National Laboratory
                            Battelle Memorial Institute

             NWChem is an open-source computational chemistry package
                        distributed under the terms of the
                      Educational Community License (ECL) 2.0
             A copy of the license is included with this distribution
                              in the LICENSE.TXT file

                                  ACKNOWLEDGMENT
                                  --------------

            This software and its documentation were developed at the
            EMSL at Pacific Northwest National Laboratory, a multiprogram
            national laboratory, operated for the U.S. Department of Energy
            by Battelle under Contract Number DE-AC05-76RL01830. Support
            for this work was provided by the Department of Energy Office
            of Biological and Environmental Research, Office of Basic
            Energy Sciences, and the Office of Advanced Scientific Computing.


           Job information
           ---------------

    hostname        = p21
    program         = /home/aditisingh4812/nw_chem/nwchem-7.2.3-release.revision-d690e065-srconly.2024-08-27/nwchem-7.2.3/bin/LINUX64/nwchem
    date            = Fri Apr 18 19:38:38 2025

    compiled        = Mon_Apr_07_18:51:54_2025
    source          = /home/aditisingh4812/nw_chem/nwchem-7.2.3-release.revision-d690e065-srconly.2024-08-27/nwchem-7.2.3
    nwchem branch   = 7.2.3
    nwchem revision = d690e065
    ga revision     = 5.8.0
    use scalapack   = F
    input           = /home/aditisingh4812/nw_chem/nwchem-run/nwchem-run/tddft/open/gdd_open/geom-MOL-2/bh2.nw
    prefix          = bh2.
    data base       = ./bh2.db
    status          = startup
    nproc           =        8
    time left       =     -1s



           Memory information
           ------------------

    heap     = 2621440000 doubles =  20000.0 Mbytes
    stack    = 2621439997 doubles =  20000.0 Mbytes
    global   = 6553600000 doubles =  50000.0 Mbytes (distinct from heap & stack)
    total    = ********** doubles =  90000.0 Mbytes
    verify   = yes
    hardfail = no 


           Directory information
           ---------------------

  0 permanent = .
  0 scratch   = .




                                NWChem Input Module
                                -------------------



 Scaling coordinates for geometry "geometry" by  1.889725989
 (inverse scale =  0.529177249)



                             Geometry "geometry" -> ""
                             -------------------------

 Output coordinates in angstroms (scale by  1.889725989 to convert to a.u.)

  No.       Tag          Charge          X              Y              Z
 ---- ---------------- ---------- -------------- -------------- --------------
    1 B                    5.0000     0.00000000     0.00000000     0.14640257
    2 H                    1.0000    -1.06427600     0.00000000    -0.36600643
    3 H                    1.0000     1.06427600     0.00000000    -0.36600643

      Atomic Mass 
      ----------- 

      B                 11.009310
      H                  1.007825


 Effective nuclear repulsion energy (a.u.)       4.7285852724

            Nuclear Dipole moment (a.u.) 
            ----------------------------
        X                 Y               Z
 ---------------- ---------------- ----------------
     0.0000000000     0.0000000000     0.0000000000


            XYZ format geometry
            -------------------
     3
 geometry
 B                     0.00000000     0.00000000     0.14640257
 H                    -1.06427600     0.00000000    -0.36600643
 H                     1.06427600     0.00000000    -0.36600643

 ==============================================================================
                                internuclear distances
 ------------------------------------------------------------------------------
       center one      |      center two      | atomic units |  angstroms
 ------------------------------------------------------------------------------
    2 H                |   1 B                |     2.23215  |     1.18121
    3 H                |   1 B                |     2.23215  |     1.18121
 ------------------------------------------------------------------------------
                         number of included internuclear distances:          2
 ==============================================================================



 ==============================================================================
                                 internuclear angles
 ------------------------------------------------------------------------------
        center 1       |       center 2       |       center 3       |  degrees
 ------------------------------------------------------------------------------
    2 H                |   1 B                |   3 H                |   128.58
 ------------------------------------------------------------------------------
                            number of included internuclear angles:          1
 ==============================================================================





 Summary of "ao basis" -> "" (cartesian)
 ------------------------------------------------------------------------------
       Tag                 Description            Shells   Functions and Types
 ---------------- ------------------------------  ------  ---------------------
 *                         def2-TZVPD                 on all atoms 


  pbe96 is a nonlocal functional; adding pw91lda local functional. 

                                 NWChem DFT Module
                                 -----------------


                      Basis "ao basis" -> "ao basis" (cartesian)
                      -----
  B (Boron)
  ---------
            Exponent  Coefficients 
       -------------- ---------------------------------------------------------
  1 S  8.56486607E+03  0.000228
  1 S  1.28415163E+03  0.001768
  1 S  2.92278716E+02  0.009141
  1 S  8.27754692E+01  0.036343
  1 S  2.70179393E+01  0.110635
  1 S  9.81496197E+00  0.233673

  2 S  3.93185591E+00  0.418188
  2 S  1.65955997E+00  0.223255

  3 S  3.57629652E-01  1.000000

  4 S  1.42462775E-01  1.000000

  5 S  6.05605948E-02  1.000000

  6 S  3.13347371E-02  1.000000

  7 P  2.24538758E+01  0.005027
  7 P  5.10450583E+00  0.032802
  7 P  1.49860813E+00  0.131512
  7 P  5.09278313E-01  0.331972

  8 P  1.81470778E-01  1.000000

  9 P  6.46218939E-02  1.000000

 10 D  6.61000000E-01  1.000000

 11 D  1.99000000E-01  1.000000

 12 D  5.95490858E-02  1.000000

 13 F  4.90000000E-01  1.000000

  H (Hydrogen)
  ------------
            Exponent  Coefficients 
       -------------- ---------------------------------------------------------
  1 S  3.40613410E+01  0.006025
  1 S  5.12357460E+00  0.045021
  1 S  1.16466260E+00  0.201897

  2 S  3.27230410E-01  1.000000

  3 S  1.03072410E-01  1.000000

  4 P  8.00000000E-01  1.000000

  5 P  9.57741296E-02  1.000000



 Summary of "ao basis" -> "ao basis" (cartesian)
 ------------------------------------------------------------------------------
       Tag                 Description            Shells   Functions and Types
 ---------------- ------------------------------  ------  ---------------------
 B                         def2-TZVPD               13       43   6s3p3d1f
 H                         def2-TZVPD                5        9   3s2p




 Summary of "ao basis" -> "ao basis" (cartesian)
 ------------------------------------------------------------------------------
       Tag                 Description            Shells   Functions and Types
 ---------------- ------------------------------  ------  ---------------------
 B                         def2-TZVPD               13       43   6s3p3d1f
 H                         def2-TZVPD                5        9   3s2p


  int_init: cando_txs set to always be  F
  Caching 1-el integrals 

            General Information
            -------------------
          SCF calculation type: DFT
          Wavefunction type:  spin polarized.
          No. of atoms     :     3
          No. of electrons :     7
           Alpha electrons :     4
            Beta electrons :     3
          Charge           :     0
          Spin multiplicity:     2
          Use of symmetry is: off; symmetry adaption is: off
          Maximum number of iterations:  50
          AO basis - number of functions:    61
                     number of shells:    23
          Convergence on energy requested:  1.00D-06
          Convergence on density requested:  1.00D-05
          Convergence on gradient requested:  5.00D-04

              XC Information
              --------------
                     Hartree-Fock (Exact) Exchange  1.000          
                     LC-wPBE(h)Exchange Functional  1.000          
            Perdew 1991 LDA Correlation Functional  1.000 local    
           PerdewBurkeErnz. Correlation Functional  1.000 non-local

           Range-Separation Parameters        
           ---------------------------
           Alpha           :  0.00
           Beta            :  1.00
           Gamma           :  0.37
           Short-Range HF  :     F

             Grid Information
             ----------------
          Grid used for XC integration:  xfine     
          Radial quadrature: Mura-Knowles        
          Angular quadrature: Lebedev. 
          Tag              B.-S. Rad. Rad. Pts. Rad. Cut. Ang. Pts.
          ---              ---------- --------- --------- ---------
          B                   0.85      100          10.0      1454
          H                   0.35      100          10.0      1202
          Grid pruning is: on 
          Number of quadrature shells:   300
          Spatial weights used:  Erf1

          Convergence Information
          -----------------------
          Convergence aids based upon iterative change in 
          total energy or number of iterations. 
          Levelshifting, if invoked, occurs when the 
          HOMO/LUMO gap drops below (HL_TOL):  1.00D-02
          DIIS, if invoked, will attempt to extrapolate 
          using up to (NFOCK): 10 stored Fock matrices.

                    Damping( 0%)  Levelshifting(0.5)       DIIS
                  --------------- ------------------- ---------------
          dE  on:    start            ASAP                start   
          dE off:    2 iters         50 iters            50 iters 


      Screening Tolerance Information
      -------------------------------
          Density screening/tol_rho:  1.00D-10
          AO Gaussian exp screening on grid/accAOfunc:  14
          CD Gaussian exp screening on grid/accCDfunc:  20
          XC Gaussian exp screening on grid/accXCfunc:  20
          Schwarz screening/accCoul:  1.00D-08

  
  CAM type calculations without CDFIT are
  only available with the direct option.
  Forcing Direct SCF
  

      Superposition of Atomic Density Guess
      -------------------------------------

 Sum of atomic energies:         -25.53433207

      Non-variational initial energy
      ------------------------------

 Total energy =     -25.616614
 1-e energy   =     -42.442001
 2-e energy   =      12.096801
 HOMO         =      -0.092896
 LUMO         =      -0.036863

  WARNING: movecs_in_org=atomic not equal to movecs_in=./bh2.movecs
   Time after variat. SCF:      0.2
   Time prior to 1st pass:      0.2

 Grid_pts file          = ./bh2.gridpts.0
 Record size in doubles =  12289        No. of grid_pts per rec  =   3070
 Max. records in memory =     21        Max. recs in file   = 126656358


           Memory utilization after 1st SCF pass: 
           Heap Space remaining (MW):     1572.71          1572710200
          Stack Space remaining (MW):     2621.44          2621439356

   convergence    iter        energy       DeltaE   RMS-Dens  Diis-err    time
 ---------------- ----- ----------------- --------- --------- ---------  ------
 d= 0,ls=0.0,diis     1    -25.8818638641 -3.06D+01  5.71D-03  4.48D-02     0.6
                                                     2.20D-03  3.72D-02
 d= 0,ls=0.0,diis     2    -25.9069902579 -2.51D-02  1.89D-03  1.81D-03     1.1
                                                     1.14D-03  2.46D-03
 d= 0,ls=0.0,diis     3    -25.9094086575 -2.42D-03  6.51D-04  2.83D-04     1.6
                                                     1.93D-04  2.09D-04
 d= 0,ls=0.0,diis     4    -25.9098368816 -4.28D-04  2.98D-04  2.51D-05     2.0
                                                     1.36D-04  4.46D-05
 d= 0,ls=0.0,diis     5    -25.9099211176 -8.42D-05  4.53D-05  2.37D-06     2.5
                                                     4.38D-05  2.82D-06
  Resetting Diis
 d= 0,ls=0.0,diis     6    -25.9099270717 -5.95D-06  1.86D-05  2.02D-07     2.9
                                                     1.08D-05  1.47D-07
 d= 0,ls=0.0,diis     7    -25.9099274205 -3.49D-07  3.43D-06  7.20D-09     3.4
                                                     1.17D-06  5.50D-09


         Total DFT energy =      -25.909927420525
      One electron energy =      -43.026732055887
           Coulomb energy =       17.086967443616
    Exchange-Corr. energy =       -4.698748080610
 Nuclear repulsion energy =        4.728585272356

 Numeric. integr. density =        7.000000012249

     Total iterative time =      3.2s



                    DFT Final Alpha Molecular Orbital Analysis
                    ------------------------------------------

 Vector    1  Occ=1.000000D+00  E=-6.762459D+00
              MO Center=  3.1D-13,  2.2D-12,  1.5D-01, r^2= 4.1D-02
   Bfn.  Coefficient  Atom+Function         Bfn.  Coefficient  Atom+Function  
  ----- ------------  ---------------      ----- ------------  ---------------
     2      0.569695  1 B  s                  1      0.496494  1 B  s          
     3      0.108570  1 B  s                  4     -0.103816  1 B  s          

 Vector    2  Occ=1.000000D+00  E=-6.404489D-01
              MO Center= -1.2D-11,  1.0D-10, -1.4D-01, r^2= 1.3D+00
   Bfn.  Coefficient  Atom+Function         Bfn.  Coefficient  Atom+Function  
  ----- ------------  ---------------      ----- ------------  ---------------
     3      0.342632  1 B  s                  4      0.316722  1 B  s          
     2     -0.187112  1 B  s                 45      0.142880  2 H  s          
    54      0.142880  3 H  s                 44      0.112810  2 H  s          
    53      0.112810  3 H  s                  1     -0.100110  1 B  s          
     9     -0.063545  1 B  pz                46      0.050017  2 H  s          

 Vector    3  Occ=1.000000D+00  E=-4.927969D-01
              MO Center=  3.0D-11,  1.5D-10, -1.5D-01, r^2= 1.5D+00
   Bfn.  Coefficient  Atom+Function         Bfn.  Coefficient  Atom+Function  
  ----- ------------  ---------------      ----- ------------  ---------------
     7      0.333010  1 B  px                10      0.218666  1 B  px         
    45     -0.205227  2 H  s                 54      0.205227  3 H  s          
    44     -0.147367  2 H  s                 53      0.147367  3 H  s          
    46     -0.125022  2 H  s                 55      0.125022  3 H  s          
    13      0.046335  1 B  px                18     -0.035412  1 B  dxz        

 Vector    4  Occ=1.000000D+00  E=-3.269398D-01
              MO Center= -2.3D-11, -2.4D-09,  4.8D-01, r^2= 1.6D+00
   Bfn.  Coefficient  Atom+Function         Bfn.  Coefficient  Atom+Function  
  ----- ------------  ---------------      ----- ------------  ---------------
     9      0.405760  1 B  pz                12      0.375048  1 B  pz         
     4      0.275718  1 B  s                  5      0.189247  1 B  s          
    15      0.174635  1 B  pz                 3      0.129257  1 B  s          
    46     -0.102261  2 H  s                 55     -0.102261  3 H  s          
    45     -0.091042  2 H  s                 54     -0.091042  3 H  s          

 Vector    5  Occ=0.000000D+00  E=-1.550534D-03
              MO Center= -2.3D-13,  3.8D-09,  1.3D-01, r^2= 2.7D+00
   Bfn.  Coefficient  Atom+Function         Bfn.  Coefficient  Atom+Function  
  ----- ------------  ---------------      ----- ------------  ---------------
    14      0.540062  1 B  py                 8      0.366004  1 B  py         
    11      0.257538  1 B  py                35      0.038666  1 B  fxxy       
    42      0.038587  1 B  fyzz       

 Vector    6  Occ=0.000000D+00  E= 3.873705D-02
              MO Center=  2.1D-10, -3.6D-10, -1.5D-03, r^2= 1.8D+01
   Bfn.  Coefficient  Atom+Function         Bfn.  Coefficient  Atom+Function  
  ----- ------------  ---------------      ----- ------------  ---------------
     6      6.194782  1 B  s                 28     -1.664899  1 B  dxx        
    31     -1.632223  1 B  dyy               33     -1.631704  1 B  dzz        
     3     -0.767746  1 B  s                 25     -0.521327  1 B  dyy        
    27     -0.503580  1 B  dzz                5     -0.496310  1 B  s          
    22     -0.490180  1 B  dxx               46     -0.300536  2 H  s          

 Vector    7  Occ=0.000000D+00  E= 1.347447D-01
              MO Center= -1.4D-09,  2.6D-09, -6.8D-01, r^2= 9.4D+00
   Bfn.  Coefficient  Atom+Function         Bfn.  Coefficient  Atom+Function  
  ----- ------------  ---------------      ----- ------------  ---------------
    46      3.319296  2 H  s                 55     -3.319296  3 H  s          
    13      2.741499  1 B  px                30     -0.875032  1 B  dxz        
    50      0.792200  2 H  px                59      0.792200  3 H  px         
    10      0.740409  1 B  px                52      0.433968  2 H  pz         
    61     -0.433968  3 H  pz                24     -0.229709  1 B  dxz        

 Vector    8  Occ=0.000000D+00  E= 1.448161D-01
              MO Center=  8.8D-10,  1.4D-09, -3.2D-01, r^2= 9.1D+00
   Bfn.  Coefficient  Atom+Function         Bfn.  Coefficient  Atom+Function  
  ----- ------------  ---------------      ----- ------------  ---------------
     5      1.509282  1 B  s                 28      1.312187  1 B  dxx        
    33     -1.287066  1 B  dzz               15      0.892325  1 B  pz         
    31     -0.781159  1 B  dyy               46     -0.771990  2 H  s          
    55     -0.771990  3 H  s                 52     -0.637841  2 H  pz         
    61     -0.637841  3 H  pz                 4     -0.374893  1 B  s          

 Vector    9  Occ=0.000000D+00  E= 1.516517D-01
              MO Center=  1.3D-10,  2.1D-09, -2.0D-01, r^2= 9.7D+00
   Bfn.  Coefficient  Atom+Function         Bfn.  Coefficient  Atom+Function  
  ----- ------------  ---------------      ----- ------------  ---------------
     5      8.378421  1 B  s                 46     -4.489779  2 H  s          
    55     -4.489779  3 H  s                 15     -2.658222  1 B  pz         
    31     -1.918315  1 B  dyy               50     -1.602779  2 H  px         
    59      1.602779  3 H  px                28     -1.307434  1 B  dxx        
     6      0.918012  1 B  s                 33     -0.870329  1 B  dzz        

 Vector   10  Occ=0.000000D+00  E= 1.598006D-01
              MO Center= -2.5D-11,  1.3D-09,  1.0D+00, r^2= 7.8D+00
   Bfn.  Coefficient  Atom+Function         Bfn.  Coefficient  Atom+Function  
  ----- ------------  ---------------      ----- ------------  ---------------
    30      2.325416  1 B  dxz               52      0.393541  2 H  pz         
    61     -0.393541  3 H  pz                50      0.266812  2 H  px         
    59      0.266812  3 H  px                10      0.249950  1 B  px         
    45      0.195188  2 H  s                 54     -0.195188  3 H  s          
    24     -0.103537  1 B  dxz                7      0.041952  1 B  px         

 Vector   11  Occ=0.000000D+00  E= 1.683599D-01
              MO Center=  3.8D-10,  1.2D-09,  5.8D-02, r^2= 1.5D+01
   Bfn.  Coefficient  Atom+Function         Bfn.  Coefficient  Atom+Function  
  ----- ------------  ---------------      ----- ------------  ---------------
     6      9.095587  1 B  s                 31     -3.791973  1 B  dyy        
    28     -3.707762  1 B  dxx               33     -3.585429  1 B  dzz        
     5      1.730091  1 B  s                  3     -1.471200  1 B  s          
    25     -1.263278  1 B  dyy               27     -1.253902  1 B  dzz        
    22     -1.178391  1 B  dxx               46     -0.665225  2 H  s          

 Vector   12  Occ=0.000000D+00  E= 1.690815D-01
              MO Center= -1.3D-11, -3.0D-09,  4.5D-01, r^2= 9.3D+00
   Bfn.  Coefficient  Atom+Function         Bfn.  Coefficient  Atom+Function  
  ----- ------------  ---------------      ----- ------------  ---------------
    29      2.520618  1 B  dxy               51      0.528259  2 H  py         
    60     -0.528259  3 H  py                17      0.034318  1 B  dxy        
    23      0.033478  1 B  dxy        

 Vector   13  Occ=0.000000D+00  E= 1.777315D-01
              MO Center=  1.7D-11,  1.2D-08, -2.7D-01, r^2= 8.6D+00
   Bfn.  Coefficient  Atom+Function         Bfn.  Coefficient  Atom+Function  
  ----- ------------  ---------------      ----- ------------  ---------------
    32      1.963614  1 B  dyz               14     -0.661197  1 B  py         
    51      0.307299  2 H  py                60      0.307299  3 H  py         
    11      0.121321  1 B  py                26     -0.091913  1 B  dyz        
     8      0.058519  1 B  py                20      0.056982  1 B  dyz        

 Vector   14  Occ=0.000000D+00  E= 1.807562D-01
              MO Center=  5.9D-11, -1.2D-08,  1.0D+00, r^2= 7.8D+00
   Bfn.  Coefficient  Atom+Function         Bfn.  Coefficient  Atom+Function  
  ----- ------------  ---------------      ----- ------------  ---------------
     5      2.231384  1 B  s                 33     -1.583497  1 B  dzz        
    46     -1.184904  2 H  s                 55     -1.184904  3 H  s          
     6      0.984348  1 B  s                 15     -0.551485  1 B  pz         
    28     -0.534905  1 B  dxx                4      0.519524  1 B  s          
    50     -0.324374  2 H  px                59      0.324374  3 H  px         

 Vector   15  Occ=0.000000D+00  E= 2.057540D-01
              MO Center=  1.2D-11, -5.5D-09,  5.2D-01, r^2= 6.6D+00
   Bfn.  Coefficient  Atom+Function         Bfn.  Coefficient  Atom+Function  
  ----- ------------  ---------------      ----- ------------  ---------------
    14      1.960236  1 B  py                11     -1.096825  1 B  py         
    51     -0.472934  2 H  py                60     -0.472934  3 H  py         
     8     -0.249349  1 B  py                40      0.169754  1 B  fyyy       
    35      0.166916  1 B  fxxy              42      0.162999  1 B  fyzz       
    26     -0.084933  1 B  dyz               32      0.045173  1 B  dyz        

 Vector   16  Occ=0.000000D+00  E= 2.903639D-01
              MO Center= -1.6D-10, -2.9D-10,  2.4D-01, r^2= 7.6D+00
   Bfn.  Coefficient  Atom+Function         Bfn.  Coefficient  Atom+Function  
  ----- ------------  ---------------      ----- ------------  ---------------
    28      2.807256  1 B  dxx                5      2.502167  1 B  s          
    46     -1.775711  2 H  s                 55     -1.775711  3 H  s          
    50      1.517196  2 H  px                59     -1.517196  3 H  px         
     6     -1.332214  1 B  s                  4     -0.956219  1 B  s          
    15     -0.533922  1 B  pz                31     -0.413906  1 B  dyy        

 Vector   17  Occ=0.000000D+00  E= 3.180438D-01
              MO Center=  3.4D-10, -2.3D-10, -1.8D-01, r^2= 7.5D+00
   Bfn.  Coefficient  Atom+Function         Bfn.  Coefficient  Atom+Function  
  ----- ------------  ---------------      ----- ------------  ---------------
    30      3.752767  1 B  dxz               13     -3.286248  1 B  px         
    46     -2.054276  2 H  s                 55      2.054276  3 H  s          
    52      1.340420  2 H  pz                61     -1.340421  3 H  pz         
    50      1.312461  2 H  px                59      1.312461  3 H  px         
    10      0.532348  1 B  px                24     -0.346428  1 B  dxz        

 Vector   18  Occ=0.000000D+00  E= 3.488201D-01
              MO Center= -7.9D-10,  4.5D-11, -6.7D-01, r^2= 7.5D+00
   Bfn.  Coefficient  Atom+Function         Bfn.  Coefficient  Atom+Function  
  ----- ------------  ---------------      ----- ------------  ---------------
     5      7.868172  1 B  s                 46     -4.027096  2 H  s          
    55     -4.027096  3 H  s                 33     -2.904622  1 B  dzz        
    52     -2.702847  2 H  pz                61     -2.702847  3 H  pz         
    15      2.196076  1 B  pz                 4      2.065142  1 B  s          
     6      1.812192  1 B  s                 31     -1.580769  1 B  dyy        

 Vector   19  Occ=0.000000D+00  E= 3.517402D-01
              MO Center=  2.5D-10, -5.5D-10, -2.1D-01, r^2= 7.5D+00
   Bfn.  Coefficient  Atom+Function         Bfn.  Coefficient  Atom+Function  
  ----- ------------  ---------------      ----- ------------  ---------------
    13      2.211374  1 B  px                50     -1.709266  2 H  px         
    59     -1.709266  3 H  px                52      1.159392  2 H  pz         
    61     -1.159392  3 H  pz                30      0.747281  1 B  dxz        
    10     -0.689710  1 B  px                24      0.404008  1 B  dxz        
    45     -0.300839  2 H  s                 54      0.300839  3 H  s          

 Vector   20  Occ=0.000000D+00  E= 3.609056D-01
              MO Center= -1.8D-10, -1.6D-10, -1.4D-01, r^2= 7.4D+00
   Bfn.  Coefficient  Atom+Function         Bfn.  Coefficient  Atom+Function  
  ----- ------------  ---------------      ----- ------------  ---------------
    29      3.281453  1 B  dxy               51      2.311752  2 H  py         
    60     -2.311752  3 H  py                23      0.251829  1 B  dxy        
    17     -0.093784  1 B  dxy        

 Vector   21  Occ=0.000000D+00  E= 3.719524D-01
              MO Center=  1.6D-10, -1.6D-11, -4.3D-01, r^2= 6.9D+00
   Bfn.  Coefficient  Atom+Function         Bfn.  Coefficient  Atom+Function  
  ----- ------------  ---------------      ----- ------------  ---------------
    14      2.619278  1 B  py                51     -2.219227  2 H  py         
    60     -2.219227  3 H  py                32     -1.535025  1 B  dyz        
    11      1.145634  1 B  py                40     -0.163628  1 B  fyyy       
    42     -0.156026  1 B  fyzz              35     -0.145564  1 B  fxxy       
    26     -0.090941  1 B  dyz                8      0.083163  1 B  py         

 Vector   22  Occ=0.000000D+00  E= 4.350107D-01
              MO Center= -8.0D-10,  4.3D-11,  6.4D-01, r^2= 9.9D+00
   Bfn.  Coefficient  Atom+Function         Bfn.  Coefficient  Atom+Function  
  ----- ------------  ---------------      ----- ------------  ---------------
     5     15.674497  1 B  s                  6      8.350337  1 B  s          
    28     -5.843770  1 B  dxx               31     -5.759751  1 B  dyy        
    33     -5.077630  1 B  dzz               46     -3.777118  2 H  s          
    55     -3.777118  3 H  s                  3     -3.278487  1 B  s          
    22     -2.275005  1 B  dxx               25     -2.262517  1 B  dyy        

 Vector   23  Occ=0.000000D+00  E= 4.372625D-01
              MO Center= -1.4D-09, -2.5D-10, -8.4D-01, r^2= 6.5D+00
   Bfn.  Coefficient  Atom+Function         Bfn.  Coefficient  Atom+Function  
  ----- ------------  ---------------      ----- ------------  ---------------
     5      7.769183  1 B  s                 46     -6.524135  2 H  s          
    55     -6.524135  3 H  s                 50     -3.311460  2 H  px         
    59      3.311460  3 H  px                15     -2.644784  1 B  pz         
     3      2.500369  1 B  s                 12     -2.475903  1 B  pz         
     6     -2.062838  1 B  s                 22      1.832799  1 B  dxx        

 Vector   24  Occ=0.000000D+00  E= 4.408489D-01
              MO Center=  2.2D-09, -1.7D-10, -2.0D-01, r^2= 6.7D+00
   Bfn.  Coefficient  Atom+Function         Bfn.  Coefficient  Atom+Function  
  ----- ------------  ---------------      ----- ------------  ---------------
    46      5.756735  2 H  s                 55     -5.756735  3 H  s          
    10      3.652586  1 B  px                50      2.352843  2 H  px         
    59      2.352843  3 H  px                52      1.798718  2 H  pz         
    61     -1.798718  3 H  pz                30      1.143343  1 B  dxz        
    13      0.966341  1 B  px                37     -0.435071  1 B  fxyy       

 Vector   25  Occ=0.000000D+00  E= 5.776704D-01
              MO Center= -9.8D-11, -5.0D-11, -1.8D-02, r^2= 4.9D+00
   Bfn.  Coefficient  Atom+Function         Bfn.  Coefficient  Atom+Function  
  ----- ------------  ---------------      ----- ------------  ---------------
    46      3.652117  2 H  s                 55     -3.652117  3 H  s          
    13      2.846981  1 B  px                24     -2.037546  1 B  dxz        
    30     -1.542116  1 B  dxz               52     -0.836678  2 H  pz         
    61      0.836678  3 H  pz                45     -0.301452  2 H  s          
    54      0.301452  3 H  s                 39      0.108699  1 B  fxzz       

 Vector   26  Occ=0.000000D+00  E= 6.077905D-01
              MO Center=  2.9D-11,  1.4D-08,  2.2D-01, r^2= 3.6D+00
   Bfn.  Coefficient  Atom+Function         Bfn.  Coefficient  Atom+Function  
  ----- ------------  ---------------      ----- ------------  ---------------
    26      2.150356  1 B  dyz               14     -0.734475  1 B  py         
    32     -0.693464  1 B  dyz               51      0.549861  2 H  py         
    60      0.549861  3 H  py                11     -0.123109  1 B  py         
     8     -0.040887  1 B  py                35     -0.028233  1 B  fxxy       

 Vector   27  Occ=0.000000D+00  E= 6.096756D-01
              MO Center= -2.0D-12, -1.3D-08,  4.9D-01, r^2= 4.1D+00
   Bfn.  Coefficient  Atom+Function         Bfn.  Coefficient  Atom+Function  
  ----- ------------  ---------------      ----- ------------  ---------------
     5      8.580848  1 B  s                 46     -5.086815  2 H  s          
    55     -5.086815  3 H  s                 15     -1.659786  1 B  pz         
    33     -1.362527  1 B  dzz               27      1.042017  1 B  dzz        
    50     -1.028144  2 H  px                59      1.028144  3 H  px         
    31     -0.803606  1 B  dyy               25     -0.793763  1 B  dyy        

 Vector   28  Occ=0.000000D+00  E= 6.461721D-01
              MO Center=  4.6D-11, -1.4D-10, -3.5D-02, r^2= 3.7D+00
   Bfn.  Coefficient  Atom+Function         Bfn.  Coefficient  Atom+Function  
  ----- ------------  ---------------      ----- ------------  ---------------
    23      2.494730  1 B  dxy               51      1.350341  2 H  py         
    60     -1.350341  3 H  py                29      0.798062  1 B  dxy        
    38     -0.039762  1 B  fxyz              17     -0.030089  1 B  dxy        

 Vector   29  Occ=0.000000D+00  E= 6.738695D-01
              MO Center= -7.7D-11, -1.5D-10, -1.6D-01, r^2= 5.2D+00
   Bfn.  Coefficient  Atom+Function         Bfn.  Coefficient  Atom+Function  
  ----- ------------  ---------------      ----- ------------  ---------------
     5     10.008597  1 B  s                 46     -6.096834  2 H  s          
    55     -6.096834  3 H  s                 52     -1.922373  2 H  pz         
    61     -1.922373  3 H  pz                33     -1.742322  1 B  dzz        
    31     -1.557879  1 B  dyy               22      1.397009  1 B  dxx        
     4     -0.919506  1 B  s                 28      0.915876  1 B  dxx        

 Vector   30  Occ=0.000000D+00  E= 8.134941D-01
              MO Center=  4.6D-11, -7.5D-10,  1.1D-01, r^2= 3.3D+00
   Bfn.  Coefficient  Atom+Function         Bfn.  Coefficient  Atom+Function  
  ----- ------------  ---------------      ----- ------------  ---------------
    11      3.127011  1 B  py                 8     -1.111286  1 B  py         
    35     -0.908220  1 B  fxxy              42     -0.885942  1 B  fyzz       
    40     -0.877929  1 B  fyyy              51     -0.481486  2 H  py         
    60     -0.481486  3 H  py                14     -0.396818  1 B  py         
    32     -0.266174  1 B  dyz               26     -0.184752  1 B  dyz        

 Vector   31  Occ=0.000000D+00  E= 8.567483D-01
              MO Center= -4.8D-11,  6.2D-10,  5.0D-03, r^2= 4.0D+00
   Bfn.  Coefficient  Atom+Function         Bfn.  Coefficient  Atom+Function  
  ----- ------------  ---------------      ----- ------------  ---------------
     4      7.346753  1 B  s                  3     -3.231082  1 B  s          
    25     -3.227388  1 B  dyy               27     -2.895371  1 B  dzz        
    45     -2.487010  2 H  s                 54     -2.487010  3 H  s          
     5      2.108847  1 B  s                  6      1.964040  1 B  s          
    33     -1.832894  1 B  dzz               15      1.744783  1 B  pz         

 Vector   32  Occ=0.000000D+00  E= 8.773721D-01
              MO Center=  4.0D-10,  1.3D-10, -2.0D-01, r^2= 3.5D+00
   Bfn.  Coefficient  Atom+Function         Bfn.  Coefficient  Atom+Function  
  ----- ------------  ---------------      ----- ------------  ---------------
    46      3.472341  2 H  s                 55     -3.472341  3 H  s          
    24      2.702778  1 B  dxz               45     -2.484444  2 H  s          
    54      2.484444  3 H  s                 13      2.088073  1 B  px         
    30     -1.073165  1 B  dxz                7     -0.724620  1 B  px         
    34     -0.590379  1 B  fxxx              39     -0.507071  1 B  fxzz       

 Vector   33  Occ=0.000000D+00  E= 9.841174D-01
              MO Center=  4.2D-10, -1.9D-10,  7.0D-01, r^2= 5.5D+00
   Bfn.  Coefficient  Atom+Function         Bfn.  Coefficient  Atom+Function  
  ----- ------------  ---------------      ----- ------------  ---------------
     5     17.356851  1 B  s                  4      8.586058  1 B  s          
     3     -7.136139  1 B  s                 22     -6.236064  1 B  dxx        
     6      5.992538  1 B  s                 25     -5.997758  1 B  dyy        
    27     -5.854256  1 B  dzz               31     -4.907082  1 B  dyy        
    28     -4.790581  1 B  dxx               33     -4.530783  1 B  dzz        

 Vector   34  Occ=0.000000D+00  E= 1.024537D+00
              MO Center= -3.7D-10, -1.1D-10, -4.2D-01, r^2= 3.9D+00
   Bfn.  Coefficient  Atom+Function         Bfn.  Coefficient  Atom+Function  
  ----- ------------  ---------------      ----- ------------  ---------------
     5     10.486573  1 B  s                 46     -8.765698  2 H  s          
    55     -8.765698  3 H  s                 12     -5.802495  1 B  pz         
    22      4.454393  1 B  dxx                3      3.222298  1 B  s          
    50     -3.195479  2 H  px                59      3.195479  3 H  px         
    27      2.857589  1 B  dzz               25      2.007854  1 B  dyy        

 Vector   35  Occ=0.000000D+00  E= 1.110982D+00
              MO Center=  6.7D-11,  2.5D-11, -2.0D-01, r^2= 3.9D+00
   Bfn.  Coefficient  Atom+Function         Bfn.  Coefficient  Atom+Function  
  ----- ------------  ---------------      ----- ------------  ---------------
    10      8.618741  1 B  px                46      5.746720  2 H  s          
    55     -5.746720  3 H  s                 24     -3.032634  1 B  dxz        
    50      2.366909  2 H  px                59      2.366909  3 H  px         
    45      2.110124  2 H  s                 54     -2.110124  3 H  s          
     7     -1.281332  1 B  px                37     -1.206685  1 B  fxyy       

 Vector   36  Occ=0.000000D+00  E= 1.592067D+00
              MO Center= -4.0D-10,  2.0D-10,  1.3D-02, r^2= 1.9D+00
   Bfn.  Coefficient  Atom+Function         Bfn.  Coefficient  Atom+Function  
  ----- ------------  ---------------      ----- ------------  ---------------
    24      1.323599  1 B  dxz               39      1.173876  1 B  fxzz       
    10     -0.895973  1 B  px                46     -0.661048  2 H  s          
    55      0.661048  3 H  s                 30     -0.623980  1 B  dxz        
    45     -0.583207  2 H  s                 54      0.583207  3 H  s          
    34     -0.544550  1 B  fxxx              52     -0.458309  2 H  pz         

 Vector   37  Occ=0.000000D+00  E= 1.628386D+00
              MO Center= -6.2D-09, -1.2D-10, -1.4D-01, r^2= 1.7D+00
   Bfn.  Coefficient  Atom+Function         Bfn.  Coefficient  Atom+Function  
  ----- ------------  ---------------      ----- ------------  ---------------
    35      1.522727  1 B  fxxy              14      0.685174  1 B  py         
    51     -0.480463  2 H  py                60     -0.480463  3 H  py         
    32     -0.450179  1 B  dyz               26      0.427988  1 B  dyz        
    48      0.415791  2 H  py                57      0.415791  3 H  py         
    20     -0.322491  1 B  dyz               40     -0.316966  1 B  fyyy       

 Vector   38  Occ=0.000000D+00  E= 1.643030D+00
              MO Center=  5.9D-09, -1.2D-10, -1.0D-02, r^2= 1.8D+00
   Bfn.  Coefficient  Atom+Function         Bfn.  Coefficient  Atom+Function  
  ----- ------------  ---------------      ----- ------------  ---------------
    38      2.341312  1 B  fxyz              23      0.894004  1 B  dxy        
    29     -0.685524  1 B  dxy               17     -0.584511  1 B  dxy        
    48      0.406896  2 H  py                57     -0.406896  3 H  py         
    51     -0.309145  2 H  py                60      0.309145  3 H  py         

 Vector   39  Occ=0.000000D+00  E= 1.768280D+00
              MO Center=  2.2D-10, -8.2D-11,  8.8D-02, r^2= 1.5D+00
   Bfn.  Coefficient  Atom+Function         Bfn.  Coefficient  Atom+Function  
  ----- ------------  ---------------      ----- ------------  ---------------
     4      3.301613  1 B  s                 41      1.893338  1 B  fyyz       
     5      1.680087  1 B  s                  3     -1.417818  1 B  s          
    27     -1.131747  1 B  dzz               25     -0.964482  1 B  dyy        
    46     -0.890647  2 H  s                 55     -0.890647  3 H  s          
    43     -0.878454  1 B  fzzz              45     -0.404959  2 H  s          

 Vector   40  Occ=0.000000D+00  E= 1.788150D+00
              MO Center=  3.3D-12,  3.3D-11,  1.5D-01, r^2= 1.3D+00
   Bfn.  Coefficient  Atom+Function         Bfn.  Coefficient  Atom+Function  
  ----- ------------  ---------------      ----- ------------  ---------------
    42      2.468067  1 B  fyzz              40     -0.610845  1 B  fyyy       
    35     -0.531135  1 B  fxxy              11     -0.037499  1 B  py         
    26      0.027450  1 B  dyz        

 Vector   41  Occ=0.000000D+00  E= 1.883919D+00
              MO Center= -7.9D-10,  7.3D-11,  2.1D-01, r^2= 1.7D+00
   Bfn.  Coefficient  Atom+Function         Bfn.  Coefficient  Atom+Function  
  ----- ------------  ---------------      ----- ------------  ---------------
    24      1.831477  1 B  dxz               18     -1.488901  1 B  dxz        
    39     -1.444329  1 B  fxzz              46     -1.192316  2 H  s          
    55      1.192316  3 H  s                 13     -0.944732  1 B  px         
    34     -0.543146  1 B  fxxx              30      0.467500  1 B  dxz        
    52      0.401096  2 H  pz                61     -0.401096  3 H  pz         

 Vector   42  Occ=0.000000D+00  E= 1.887708D+00
              MO Center=  7.1D-10, -3.9D-10, -9.0D-03, r^2= 2.0D+00
   Bfn.  Coefficient  Atom+Function         Bfn.  Coefficient  Atom+Function  
  ----- ------------  ---------------      ----- ------------  ---------------
     4     12.124822  1 B  s                  3     -5.614153  1 B  s          
     5      4.383602  1 B  s                 25     -3.824067  1 B  dyy        
    27     -3.780512  1 B  dzz               46     -2.132117  2 H  s          
    55     -2.132117  3 H  s                 36     -1.923581  1 B  fxxz       
    41     -1.338708  1 B  fyyz              45     -1.230972  2 H  s          

 Vector   43  Occ=0.000000D+00  E= 1.946228D+00
              MO Center= -4.4D-12, -2.9D-11,  1.6D-01, r^2= 1.6D+00
   Bfn.  Coefficient  Atom+Function         Bfn.  Coefficient  Atom+Function  
  ----- ------------  ---------------      ----- ------------  ---------------
     4      7.864015  1 B  s                  3     -4.120926  1 B  s          
    25     -2.992379  1 B  dyy               22     -2.358249  1 B  dxx        
     5      1.644504  1 B  s                 27     -1.398501  1 B  dzz        
    21     -1.010312  1 B  dzz               19      0.839527  1 B  dyy        
    36     -0.707223  1 B  fxxz               6      0.594123  1 B  s          

 Vector   44  Occ=0.000000D+00  E= 1.975113D+00
              MO Center= -7.5D-11,  2.5D-08,  1.8D-01, r^2= 1.4D+00
   Bfn.  Coefficient  Atom+Function         Bfn.  Coefficient  Atom+Function  
  ----- ------------  ---------------      ----- ------------  ---------------
    20      2.077766  1 B  dyz               26     -1.518120  1 B  dyz        
    35      0.816694  1 B  fxxy              14      0.332807  1 B  py         
    32      0.329922  1 B  dyz               51     -0.234004  2 H  py         
    60     -0.234004  3 H  py                42      0.148812  1 B  fyzz       
     8     -0.101495  1 B  py                40     -0.063291  1 B  fyyy       

 Vector   45  Occ=0.000000D+00  E= 1.976386D+00
              MO Center=  1.2D-09, -2.4D-08, -9.8D-02, r^2= 2.8D+00
   Bfn.  Coefficient  Atom+Function         Bfn.  Coefficient  Atom+Function  
  ----- ------------  ---------------      ----- ------------  ---------------
     4     30.931528  1 B  s                  3    -16.421890  1 B  s          
    25     -8.916448  1 B  dyy               27     -8.671064  1 B  dzz        
    22     -7.846283  1 B  dxx               46      3.690079  2 H  s          
    55      3.690079  3 H  s                  5     -3.523845  1 B  s          
    45     -2.599307  2 H  s                 54     -2.599307  3 H  s          

 Vector   46  Occ=0.000000D+00  E= 1.989666D+00
              MO Center=  7.7D-11, -2.2D-09,  2.3D-01, r^2= 1.5D+00
   Bfn.  Coefficient  Atom+Function         Bfn.  Coefficient  Atom+Function  
  ----- ------------  ---------------      ----- ------------  ---------------
    38      2.254464  1 B  fxyz              17      1.862368  1 B  dxy        
    23     -1.851471  1 B  dxy               51     -0.589148  2 H  py         
    60      0.589148  3 H  py                29     -0.291804  1 B  dxy        
    48     -0.175342  2 H  py                57      0.175342  3 H  py         

 Vector   47  Occ=0.000000D+00  E= 1.997168D+00
              MO Center= -1.0D-09,  1.8D-09, -5.6D-03, r^2= 2.1D+00
   Bfn.  Coefficient  Atom+Function         Bfn.  Coefficient  Atom+Function  
  ----- ------------  ---------------      ----- ------------  ---------------
    45      2.827290  2 H  s                 54     -2.827290  3 H  s          
    46     -2.200819  2 H  s                 55      2.200819  3 H  s          
    24     -2.032169  1 B  dxz               34      1.817630  1 B  fxxx       
    37     -1.647384  1 B  fxyy              39      1.462253  1 B  fxzz       
    13     -1.338590  1 B  px                10      0.833251  1 B  px         

 Vector   48  Occ=0.000000D+00  E= 2.079202D+00
              MO Center= -1.2D-12,  1.1D-10,  1.3D-01, r^2= 1.8D+00
   Bfn.  Coefficient  Atom+Function         Bfn.  Coefficient  Atom+Function  
  ----- ------------  ---------------      ----- ------------  ---------------
    11      2.769927  1 B  py                40     -2.178829  1 B  fyyy       
    42     -1.969476  1 B  fyzz              35     -1.416978  1 B  fxxy       
     8      0.736474  1 B  py                14     -0.275549  1 B  py         
    51     -0.273577  2 H  py                60     -0.273577  3 H  py         
    26     -0.174077  1 B  dyz               32     -0.141289  1 B  dyz        

 Vector   49  Occ=0.000000D+00  E= 2.116302D+00
              MO Center= -4.2D-11, -1.0D-10,  3.5D-01, r^2= 2.6D+00
   Bfn.  Coefficient  Atom+Function         Bfn.  Coefficient  Atom+Function  
  ----- ------------  ---------------      ----- ------------  ---------------
     4     33.316599  1 B  s                  3    -19.106954  1 B  s          
    22    -10.913378  1 B  dxx               27    -10.547506  1 B  dzz        
    25    -10.218358  1 B  dyy                5      8.417729  1 B  s          
     6      2.793817  1 B  s                 31     -2.449409  1 B  dyy        
    33     -2.285301  1 B  dzz               46     -2.114639  2 H  s          

 Vector   50  Occ=0.000000D+00  E= 2.236589D+00
              MO Center=  2.0D-09, -5.3D-10, -3.9D-02, r^2= 2.0D+00
   Bfn.  Coefficient  Atom+Function         Bfn.  Coefficient  Atom+Function  
  ----- ------------  ---------------      ----- ------------  ---------------
     4     10.434126  1 B  s                  3     -7.682733  1 B  s          
    22     -5.780855  1 B  dxx               27     -4.066557  1 B  dzz        
    25     -3.656058  1 B  dyy               12      2.757186  1 B  pz         
    46      2.719148  2 H  s                 55      2.719148  3 H  s          
     5     -2.315497  1 B  s                 45      1.836807  2 H  s          

 Vector   51  Occ=0.000000D+00  E= 2.265156D+00
              MO Center= -2.1D-09,  7.6D-11,  3.2D-02, r^2= 2.4D+00
   Bfn.  Coefficient  Atom+Function         Bfn.  Coefficient  Atom+Function  
  ----- ------------  ---------------      ----- ------------  ---------------
    10      7.118190  1 B  px                46      5.239083  2 H  s          
    55     -5.239083  3 H  s                 37     -3.970446  1 B  fxyy       
    39     -2.310609  1 B  fxzz              34     -2.093449  1 B  fxxx       
    24     -1.824710  1 B  dxz               50      1.431252  2 H  px         
    59      1.431252  3 H  px                13      0.971649  1 B  px         

 Vector   52  Occ=0.000000D+00  E= 2.294250D+00
              MO Center=  2.0D-12,  1.0D-10, -1.0D-01, r^2= 2.1D+00
   Bfn.  Coefficient  Atom+Function         Bfn.  Coefficient  Atom+Function  
  ----- ------------  ---------------      ----- ------------  ---------------
     5      9.459254  1 B  s                 46     -5.705956  2 H  s          
    55     -5.705956  3 H  s                 12     -4.782025  1 B  pz         
    43      2.389618  1 B  fzzz              41      2.176289  1 B  fyyz       
    50     -1.981200  2 H  px                59      1.981200  3 H  px         
    36      1.940079  1 B  fxxz              22      1.858466  1 B  dxx        

 Vector   53  Occ=0.000000D+00  E= 2.483909D+00
              MO Center=  8.2D-09,  4.2D-10, -2.4D-01, r^2= 1.6D+00
   Bfn.  Coefficient  Atom+Function         Bfn.  Coefficient  Atom+Function  
  ----- ------------  ---------------      ----- ------------  ---------------
    38      3.176085  1 B  fxyz              17     -1.059750  1 B  dxy        
    48     -0.881578  2 H  py                57      0.881578  3 H  py         
    23     -0.528121  1 B  dxy               29      0.211741  1 B  dxy        
    51      0.117201  2 H  py                60     -0.117201  3 H  py         

 Vector   54  Occ=0.000000D+00  E= 2.507408D+00
              MO Center= -8.0D-09,  4.2D-10, -4.5D-02, r^2= 1.7D+00
   Bfn.  Coefficient  Atom+Function         Bfn.  Coefficient  Atom+Function  
  ----- ------------  ---------------      ----- ------------  ---------------
    35      2.961483  1 B  fxxy              48     -0.912569  2 H  py         
    57     -0.912569  3 H  py                20     -0.494117  1 B  dyz        
    42      0.414870  1 B  fyzz              40     -0.388227  1 B  fyyy       
    26     -0.283374  1 B  dyz                8     -0.134397  1 B  py         
    14     -0.116416  1 B  py                51      0.114426  2 H  py         

 Vector   55  Occ=0.000000D+00  E= 2.754705D+00
              MO Center= -8.8D-10,  6.4D-11, -1.8D-01, r^2= 1.9D+00
   Bfn.  Coefficient  Atom+Function         Bfn.  Coefficient  Atom+Function  
  ----- ------------  ---------------      ----- ------------  ---------------
    39      2.616720  1 B  fxzz              45     -1.687612  2 H  s          
    54      1.687612  3 H  s                 10     -1.530950  1 B  px         
    34     -1.139526  1 B  fxxx              49     -1.027627  2 H  pz         
    58      1.027627  3 H  pz                13      0.861393  1 B  px         
    46      0.600776  2 H  s                 55     -0.600776  3 H  s          

 Vector   56  Occ=0.000000D+00  E= 3.050264D+00
              MO Center= -5.2D-09,  1.5D-10, -2.4D-01, r^2= 2.1D+00
   Bfn.  Coefficient  Atom+Function         Bfn.  Coefficient  Atom+Function  
  ----- ------------  ---------------      ----- ------------  ---------------
     5      5.913866  1 B  s                 46     -3.251745  2 H  s          
    55     -3.251745  3 H  s                 45      2.999544  2 H  s          
    54      2.999544  3 H  s                 16     -1.229101  1 B  dxx        
    47      0.969871  2 H  px                56     -0.969871  3 H  px         
     3     -0.938521  1 B  s                 31     -0.939591  1 B  dyy        

 Vector   57  Occ=0.000000D+00  E= 3.077844D+00
              MO Center=  7.0D-09, -1.0D-10, -2.6D-01, r^2= 2.0D+00
   Bfn.  Coefficient  Atom+Function         Bfn.  Coefficient  Atom+Function  
  ----- ------------  ---------------      ----- ------------  ---------------
    45      3.165707  2 H  s                 54     -3.165707  3 H  s          
    10      3.146525  1 B  px                24     -1.985037  1 B  dxz        
    13     -1.261287  1 B  px                44     -0.977005  2 H  s          
    53      0.977005  3 H  s                 39      0.971899  1 B  fxzz       
    47      0.841842  2 H  px                56      0.841842  3 H  px         

 Vector   58  Occ=0.000000D+00  E= 3.667121D+00
              MO Center= -2.7D-09, -2.0D-10, -6.6D-02, r^2= 1.8D+00
   Bfn.  Coefficient  Atom+Function         Bfn.  Coefficient  Atom+Function  
  ----- ------------  ---------------      ----- ------------  ---------------
    34      3.098073  1 B  fxxx              18     -2.804332  1 B  dxz        
    45      2.744414  2 H  s                 54     -2.744414  3 H  s          
    39      2.090552  1 B  fxzz              46     -1.931254  2 H  s          
    55      1.931254  3 H  s                 47      1.449674  2 H  px         
    56      1.449674  3 H  px                24     -1.242946  1 B  dxz        

 Vector   59  Occ=0.000000D+00  E= 3.823780D+00
              MO Center=  1.8D-09, -4.0D-10, -1.4D-01, r^2= 1.6D+00
   Bfn.  Coefficient  Atom+Function         Bfn.  Coefficient  Atom+Function  
  ----- ------------  ---------------      ----- ------------  ---------------
     4     27.116149  1 B  s                  3    -11.768861  1 B  s          
    25     -7.297490  1 B  dyy               27     -6.938341  1 B  dzz        
    22     -5.353351  1 B  dxx               36     -4.592247  1 B  fxxz       
    45     -2.348460  2 H  s                 54     -2.348460  3 H  s          
    19     -1.419435  1 B  dyy               47     -1.304074  2 H  px         

 Vector   60  Occ=0.000000D+00  E= 4.924610D+00
              MO Center= -2.2D-11, -7.5D-12,  1.6D-01, r^2= 1.2D+00
   Bfn.  Coefficient  Atom+Function         Bfn.  Coefficient  Atom+Function  
  ----- ------------  ---------------      ----- ------------  ---------------
     4     27.190702  1 B  s                  3     -8.997628  1 B  s          
    22     -8.846686  1 B  dxx               27     -8.297458  1 B  dzz        
    25     -8.162061  1 B  dyy               16     -3.685567  1 B  dxx        
    21     -3.216300  1 B  dzz               19     -3.057962  1 B  dyy        
     5      2.075105  1 B  s                  6      1.590460  1 B  s          

 Vector   61  Occ=0.000000D+00  E= 2.123397D+01
              MO Center= -1.5D-13, -6.3D-14,  1.5D-01, r^2= 2.7D-01
   Bfn.  Coefficient  Atom+Function         Bfn.  Coefficient  Atom+Function  
  ----- ------------  ---------------      ----- ------------  ---------------
     4      6.252694  1 B  s                  2     -3.568743  1 B  s          
     3      2.731510  1 B  s                 22     -2.655360  1 B  dxx        
    16     -2.591693  1 B  dxx               21     -2.490860  1 B  dzz        
    27     -2.497253  1 B  dzz               19     -2.457115  1 B  dyy        
    25     -2.456205  1 B  dyy                1      1.626283  1 B  s          


                     DFT Final Beta Molecular Orbital Analysis
                     -----------------------------------------

 Vector    1  Occ=1.000000D+00  E=-6.752244D+00
              MO Center=  4.5D-13,  3.3D-12,  1.5D-01, r^2= 4.1D-02
   Bfn.  Coefficient  Atom+Function         Bfn.  Coefficient  Atom+Function  
  ----- ------------  ---------------      ----- ------------  ---------------
     2      0.570189  1 B  s                  1      0.496865  1 B  s          
     3      0.102474  1 B  s                  4     -0.095714  1 B  s          

 Vector    2  Occ=1.000000D+00  E=-6.094191D-01
              MO Center=  4.9D-12,  3.2D-10, -2.2D-01, r^2= 1.3D+00
   Bfn.  Coefficient  Atom+Function         Bfn.  Coefficient  Atom+Function  
  ----- ------------  ---------------      ----- ------------  ---------------
     3      0.333543  1 B  s                  4      0.261957  1 B  s          
     2     -0.177394  1 B  s                 45      0.154601  2 H  s          
    54      0.154601  3 H  s                 44      0.119916  2 H  s          
    53      0.119916  3 H  s                  9     -0.102192  1 B  pz         
     1     -0.095147  1 B  s                 12     -0.063199  1 B  pz         

 Vector    3  Occ=1.000000D+00  E=-4.840974D-01
              MO Center=  2.9D-11,  1.4D-10, -1.6D-01, r^2= 1.5D+00
   Bfn.  Coefficient  Atom+Function         Bfn.  Coefficient  Atom+Function  
  ----- ------------  ---------------      ----- ------------  ---------------
     7      0.325991  1 B  px                10      0.208708  1 B  px         
    45     -0.208132  2 H  s                 54      0.208132  3 H  s          
    44     -0.148946  2 H  s                 53      0.148946  3 H  s          
    46     -0.129967  2 H  s                 55      0.129967  3 H  s          
    18     -0.047339  1 B  dxz               13      0.044977  1 B  px         

 Vector    4  Occ=0.000000D+00  E= 1.857320D-02
              MO Center=  1.3D-12,  3.0D-08,  5.0D-02, r^2= 3.0D+00
   Bfn.  Coefficient  Atom+Function         Bfn.  Coefficient  Atom+Function  
  ----- ------------  ---------------      ----- ------------  ---------------
    14      0.614973  1 B  py                 8      0.347377  1 B  py         
    11      0.204775  1 B  py                32     -0.065071  1 B  dyz        
    35      0.052880  1 B  fxxy              26     -0.049824  1 B  dyz        
    40      0.030877  1 B  fyyy       

 Vector    5  Occ=0.000000D+00  E= 2.608195D-02
              MO Center=  3.2D-11, -3.2D-08,  8.8D-01, r^2= 5.2D+00
   Bfn.  Coefficient  Atom+Function         Bfn.  Coefficient  Atom+Function  
  ----- ------------  ---------------      ----- ------------  ---------------
     6      2.078361  1 B  s                  5     -1.264003  1 B  s          
    15      0.679656  1 B  pz                46      0.485407  2 H  s          
    55      0.485407  3 H  s                 33     -0.430000  1 B  dzz        
    28     -0.311348  1 B  dxx               12      0.287822  1 B  pz         
    31     -0.287304  1 B  dyy               27     -0.257182  1 B  dzz        

 Vector    6  Occ=0.000000D+00  E= 4.304184D-02
              MO Center= -1.1D-11,  4.3D-09, -4.5D-01, r^2= 1.5D+01
   Bfn.  Coefficient  Atom+Function         Bfn.  Coefficient  Atom+Function  
  ----- ------------  ---------------      ----- ------------  ---------------
     6      6.035532  1 B  s                 28     -1.776195  1 B  dxx        
    31     -1.751950  1 B  dyy               33     -1.679791  1 B  dzz        
     3     -0.740190  1 B  s                 46     -0.667223  2 H  s          
    55     -0.667223  3 H  s                 15     -0.525370  1 B  pz         
    25     -0.497957  1 B  dyy               22     -0.442934  1 B  dxx        

 Vector    7  Occ=0.000000D+00  E= 1.362128D-01
              MO Center= -4.2D-10,  2.6D-09, -6.5D-01, r^2= 9.5D+00
   Bfn.  Coefficient  Atom+Function         Bfn.  Coefficient  Atom+Function  
  ----- ------------  ---------------      ----- ------------  ---------------
    46      3.361809  2 H  s                 55     -3.361809  3 H  s          
    13      2.764236  1 B  px                30     -0.867176  1 B  dxz        
    50      0.803826  2 H  px                59      0.803826  3 H  px         
    10      0.756860  1 B  px                52      0.431325  2 H  pz         
    61     -0.431325  3 H  pz                24     -0.229494  1 B  dxz        

 Vector    8  Occ=0.000000D+00  E= 1.481885D-01
              MO Center=  2.5D-10, -2.4D-10, -4.2D-02, r^2= 9.5D+00
   Bfn.  Coefficient  Atom+Function         Bfn.  Coefficient  Atom+Function  
  ----- ------------  ---------------      ----- ------------  ---------------
     5      3.200065  1 B  s                 46     -1.678534  2 H  s          
    55     -1.678534  3 H  s                 33     -1.398946  1 B  dzz        
    31     -1.201423  1 B  dyy               28      1.056500  1 B  dxx        
    52     -0.661918  2 H  pz                61     -0.661918  3 H  pz         
     6      0.509443  1 B  s                 15      0.363141  1 B  pz         

 Vector    9  Occ=0.000000D+00  E= 1.688272D-01
              MO Center= -9.8D-10, -2.0D-09, -5.4D-01, r^2= 1.3D+01
   Bfn.  Coefficient  Atom+Function         Bfn.  Coefficient  Atom+Function  
  ----- ------------  ---------------      ----- ------------  ---------------
     6      7.052913  1 B  s                  5     -3.299089  1 B  s          
    33     -2.640513  1 B  dzz               28     -2.147846  1 B  dxx        
    31     -2.126045  1 B  dyy               46      2.001502  2 H  s          
    55      2.001502  3 H  s                  3     -1.542340  1 B  s          
    15      1.503431  1 B  pz                22     -1.246415  1 B  dxx        

 Vector   10  Occ=0.000000D+00  E= 1.698934D-01
              MO Center=  1.1D-09,  7.5D-08,  1.0D+00, r^2= 8.3D+00
   Bfn.  Coefficient  Atom+Function         Bfn.  Coefficient  Atom+Function  
  ----- ------------  ---------------      ----- ------------  ---------------
    30      2.512953  1 B  dxz               52      0.423675  2 H  pz         
    61     -0.423675  3 H  pz                50      0.298120  2 H  px         
    59      0.298120  3 H  px                10      0.226572  1 B  px         
    45      0.207850  2 H  s                 54     -0.207850  3 H  s          
    46     -0.204035  2 H  s                 55      0.204035  3 H  s          

 Vector   11  Occ=0.000000D+00  E= 1.704036D-01
              MO Center=  1.7D-11, -7.6D-08,  4.4D-01, r^2= 9.4D+00
   Bfn.  Coefficient  Atom+Function         Bfn.  Coefficient  Atom+Function  
  ----- ------------  ---------------      ----- ------------  ---------------
    29      2.515296  1 B  dxy               51      0.520229  2 H  py         
    60     -0.520229  3 H  py                17      0.034098  1 B  dxy        

 Vector   12  Occ=0.000000D+00  E= 1.779708D-01
              MO Center=  1.3D-10,  9.6D-09, -2.8D-01, r^2= 1.0D+01
   Bfn.  Coefficient  Atom+Function         Bfn.  Coefficient  Atom+Function  
  ----- ------------  ---------------      ----- ------------  ---------------
     5      5.732057  1 B  s                  6      4.436883  1 B  s          
    31     -3.172474  1 B  dyy               46     -2.879537  2 H  s          
    55     -2.879537  3 H  s                 28     -2.778355  1 B  dxx        
    15     -1.791366  1 B  pz                33     -1.293267  1 B  dzz        
    50     -1.191584  2 H  px                59      1.191584  3 H  px         

 Vector   13  Occ=0.000000D+00  E= 1.851176D-01
              MO Center= -1.6D-11,  4.5D-09, -1.1D-01, r^2= 8.8D+00
   Bfn.  Coefficient  Atom+Function         Bfn.  Coefficient  Atom+Function  
  ----- ------------  ---------------      ----- ------------  ---------------
    32      2.015692  1 B  dyz               14     -0.578541  1 B  py         
    51      0.320494  2 H  py                60      0.320494  3 H  py         
    26     -0.153454  1 B  dyz                8      0.064137  1 B  py         
    11      0.058381  1 B  py                20      0.049683  1 B  dyz        

 Vector   14  Occ=0.000000D+00  E= 1.937716D-01
              MO Center=  2.2D-12, -4.1D-09,  1.5D+00, r^2= 7.2D+00
   Bfn.  Coefficient  Atom+Function         Bfn.  Coefficient  Atom+Function  
  ----- ------------  ---------------      ----- ------------  ---------------
     5      7.192381  1 B  s                  6      4.034402  1 B  s          
    46     -3.620220  2 H  s                 55     -3.620220  3 H  s          
    33     -2.943490  1 B  dzz               28     -2.396585  1 B  dxx        
    31     -2.033857  1 B  dyy               15     -1.746211  1 B  pz         
    50     -1.201763  2 H  px                59      1.201763  3 H  px         

 Vector   15  Occ=0.000000D+00  E= 2.135032D-01
              MO Center=  8.0D-12, -8.6D-09,  4.0D-01, r^2= 6.5D+00
   Bfn.  Coefficient  Atom+Function         Bfn.  Coefficient  Atom+Function  
  ----- ------------  ---------------      ----- ------------  ---------------
    14      2.020407  1 B  py                11     -1.119049  1 B  py         
    51     -0.527078  2 H  py                60     -0.527078  3 H  py         
     8     -0.255548  1 B  py                42      0.187151  1 B  fyzz       
    40      0.172956  1 B  fyyy              35      0.165293  1 B  fxxy       
    32     -0.087175  1 B  dyz               26     -0.058861  1 B  dyz        

 Vector   16  Occ=0.000000D+00  E= 2.955834D-01
              MO Center= -4.7D-11, -2.7D-10,  2.2D-01, r^2= 7.7D+00
   Bfn.  Coefficient  Atom+Function         Bfn.  Coefficient  Atom+Function  
  ----- ------------  ---------------      ----- ------------  ---------------
    28      2.848632  1 B  dxx                5      2.118723  1 B  s          
    50      1.609068  2 H  px                59     -1.609068  3 H  px         
    46     -1.565445  2 H  s                 55     -1.565445  3 H  s          
     6     -1.367568  1 B  s                  4     -1.096061  1 B  s          
    15     -0.598807  1 B  pz                12      0.404723  1 B  pz         

 Vector   17  Occ=0.000000D+00  E= 3.311561D-01
              MO Center=  2.1D-10, -1.2D-09, -3.0D-01, r^2= 7.5D+00
   Bfn.  Coefficient  Atom+Function         Bfn.  Coefficient  Atom+Function  
  ----- ------------  ---------------      ----- ------------  ---------------
    30     -3.622206  1 B  dxz               13      3.603343  1 B  px         
    46      1.864574  2 H  s                 55     -1.864574  3 H  s          
    50     -1.632511  2 H  px                59     -1.632511  3 H  px         
    52     -1.311237  2 H  pz                61      1.311237  3 H  pz         
    10     -0.792076  1 B  px                24      0.271379  1 B  dxz        

 Vector   18  Occ=0.000000D+00  E= 3.547880D-01
              MO Center= -2.6D-09,  7.8D-10, -1.4D-01, r^2= 7.5D+00
   Bfn.  Coefficient  Atom+Function         Bfn.  Coefficient  Atom+Function  
  ----- ------------  ---------------      ----- ------------  ---------------
    13      1.789384  1 B  px                50     -1.472030  2 H  px         
    59     -1.472030  3 H  px                52      1.373030  2 H  pz         
    61     -1.373030  3 H  pz                30      1.229369  1 B  dxz        
    10     -0.532817  1 B  px                24      0.379534  1 B  dxz        
    45     -0.266447  2 H  s                 54      0.266447  3 H  s          

 Vector   19  Occ=0.000000D+00  E= 3.561674D-01
              MO Center=  2.1D-09, -7.9D-10, -6.4D-01, r^2= 7.4D+00
   Bfn.  Coefficient  Atom+Function         Bfn.  Coefficient  Atom+Function  
  ----- ------------  ---------------      ----- ------------  ---------------
     5      7.930346  1 B  s                 46     -4.203543  2 H  s          
    55     -4.203543  3 H  s                 33     -2.748998  1 B  dzz        
    52     -2.733171  2 H  pz                61     -2.733171  3 H  pz         
    15      2.183946  1 B  pz                 4      2.095331  1 B  s          
     6      1.516963  1 B  s                 31     -1.513772  1 B  dyy        

 Vector   20  Occ=0.000000D+00  E= 3.620052D-01
              MO Center= -2.6D-10, -1.0D-09, -1.4D-01, r^2= 7.4D+00
   Bfn.  Coefficient  Atom+Function         Bfn.  Coefficient  Atom+Function  
  ----- ------------  ---------------      ----- ------------  ---------------
    29      3.284879  1 B  dxy               51      2.314938  2 H  py         
    60     -2.314938  3 H  py                23      0.256358  1 B  dxy        
    17     -0.092078  1 B  dxy        

 Vector   21  Occ=0.000000D+00  E= 3.765320D-01
              MO Center=  2.4D-10,  3.5D-10, -4.3D-01, r^2= 6.8D+00
   Bfn.  Coefficient  Atom+Function         Bfn.  Coefficient  Atom+Function  
  ----- ------------  ---------------      ----- ------------  ---------------
    14      2.598647  1 B  py                51     -2.225333  2 H  py         
    60     -2.225333  3 H  py                32     -1.462522  1 B  dyz        
    11      1.204302  1 B  py                42     -0.178618  1 B  fyzz       
    26     -0.177626  1 B  dyz               40     -0.173072  1 B  fyyy       
    35     -0.147435  1 B  fxxy               8      0.094166  1 B  py         

 Vector   22  Occ=0.000000D+00  E= 4.430217D-01
              MO Center=  9.2D-10,  9.2D-11, -3.6D-01, r^2= 9.8D+00
   Bfn.  Coefficient  Atom+Function         Bfn.  Coefficient  Atom+Function  
  ----- ------------  ---------------      ----- ------------  ---------------
     6      7.537620  1 B  s                  5      6.379562  1 B  s          
    33     -4.581902  1 B  dzz               31     -4.272104  1 B  dyy        
     3     -4.131533  1 B  s                 28     -3.531426  1 B  dxx        
    22     -2.938092  1 B  dxx               27     -2.928352  1 B  dzz        
    25     -2.889159  1 B  dyy               46      1.673909  2 H  s          

 Vector   23  Occ=0.000000D+00  E= 4.471299D-01
              MO Center= -7.6D-10,  2.8D-10, -2.6D-01, r^2= 6.6D+00
   Bfn.  Coefficient  Atom+Function         Bfn.  Coefficient  Atom+Function  
  ----- ------------  ---------------      ----- ------------  ---------------
    46      6.084829  2 H  s                 55     -6.084829  3 H  s          
    10      3.666334  1 B  px                50      2.316186  2 H  px         
    59      2.316186  3 H  px                52      1.656099  2 H  pz         
    61     -1.656099  3 H  pz                13      1.261821  1 B  px         
    30      0.859928  1 B  dxz               39     -0.441093  1 B  fxzz       

 Vector   24  Occ=0.000000D+00  E= 4.645603D-01
              MO Center=  1.3D-11,  5.5D-10,  1.2D-01, r^2= 7.0D+00
   Bfn.  Coefficient  Atom+Function         Bfn.  Coefficient  Atom+Function  
  ----- ------------  ---------------      ----- ------------  ---------------
     5     15.531839  1 B  s                 46     -6.848167  2 H  s          
    55     -6.848167  3 H  s                 28     -4.753053  1 B  dxx        
     6      3.975131  1 B  s                 31     -3.715640  1 B  dyy        
    50     -3.295128  2 H  px                59      3.295128  3 H  px         
    15     -2.906983  1 B  pz                12     -2.839050  1 B  pz         

 Vector   25  Occ=0.000000D+00  E= 6.084414D-01
              MO Center= -2.0D-10,  1.2D-09,  4.3D-02, r^2= 4.5D+00
   Bfn.  Coefficient  Atom+Function         Bfn.  Coefficient  Atom+Function  
  ----- ------------  ---------------      ----- ------------  ---------------
    46      3.245969  2 H  s                 55     -3.245969  3 H  s          
    13      2.640656  1 B  px                24     -1.998108  1 B  dxz        
    30     -1.464264  1 B  dxz               52     -0.856040  2 H  pz         
    61      0.856040  3 H  pz                45     -0.346436  2 H  s          
    54      0.346436  3 H  s                 10     -0.254530  1 B  px         

 Vector   26  Occ=0.000000D+00  E= 6.322215D-01
              MO Center=  1.1D-10, -1.1D-09,  4.8D-01, r^2= 4.4D+00
   Bfn.  Coefficient  Atom+Function         Bfn.  Coefficient  Atom+Function  
  ----- ------------  ---------------      ----- ------------  ---------------
     5     11.843939  1 B  s                 46     -6.652182  2 H  s          
    55     -6.652182  3 H  s                 33     -2.055454  1 B  dzz        
    15     -1.599424  1 B  pz                31     -1.503877  1 B  dyy        
    50     -1.099039  2 H  px                59      1.099039  3 H  px         
    25     -0.861421  1 B  dyy               22      0.835121  1 B  dxx        

 Vector   27  Occ=0.000000D+00  E= 6.463032D-01
              MO Center=  4.6D-11,  6.3D-10,  2.5D-01, r^2= 3.5D+00
   Bfn.  Coefficient  Atom+Function         Bfn.  Coefficient  Atom+Function  
  ----- ------------  ---------------      ----- ------------  ---------------
    26      2.162962  1 B  dyz               32     -0.707068  1 B  dyz        
    14     -0.656130  1 B  py                51      0.469122  2 H  py         
    60      0.469122  3 H  py                42     -0.075684  1 B  fyzz       
    20     -0.046639  1 B  dyz               35     -0.033872  1 B  fxxy       

 Vector   28  Occ=0.000000D+00  E= 6.564986D-01
              MO Center=  2.1D-11, -1.4D-09, -4.2D-02, r^2= 3.7D+00
   Bfn.  Coefficient  Atom+Function         Bfn.  Coefficient  Atom+Function  
  ----- ------------  ---------------      ----- ------------  ---------------
    23      2.501918  1 B  dxy               51      1.355578  2 H  py         
    60     -1.355578  3 H  py                29      0.813324  1 B  dxy        
    38     -0.097194  1 B  fxyz              17     -0.036567  1 B  dxy        

 Vector   29  Occ=0.000000D+00  E= 6.986734D-01
              MO Center= -3.6D-11,  5.0D-10, -9.7D-02, r^2= 4.7D+00
   Bfn.  Coefficient  Atom+Function         Bfn.  Coefficient  Atom+Function  
  ----- ------------  ---------------      ----- ------------  ---------------
     5      8.303669  1 B  s                 46     -5.119585  2 H  s          
    55     -5.119585  3 H  s                 52     -1.665783  2 H  pz         
    61     -1.665783  3 H  pz                31     -1.386079  1 B  dyy        
    33     -1.341100  1 B  dzz               22      1.170124  1 B  dxx        
     4     -1.132678  1 B  s                 25      0.926492  1 B  dyy        

 Vector   30  Occ=0.000000D+00  E= 8.250216D-01
              MO Center=  4.3D-11, -5.4D-10,  9.5D-02, r^2= 3.3D+00
   Bfn.  Coefficient  Atom+Function         Bfn.  Coefficient  Atom+Function  
  ----- ------------  ---------------      ----- ------------  ---------------
    11      3.115512  1 B  py                 8     -1.114231  1 B  py         
    35     -0.916571  1 B  fxxy              40     -0.882031  1 B  fyyy       
    42     -0.876713  1 B  fyzz              51     -0.475589  2 H  py         
    60     -0.475589  3 H  py                14     -0.393907  1 B  py         
    32     -0.249551  1 B  dyz               26     -0.212847  1 B  dyz        

 Vector   31  Occ=0.000000D+00  E= 8.761941D-01
              MO Center= -8.4D-10,  6.7D-10,  8.4D-03, r^2= 4.0D+00
   Bfn.  Coefficient  Atom+Function         Bfn.  Coefficient  Atom+Function  
  ----- ------------  ---------------      ----- ------------  ---------------
     4      7.709226  1 B  s                  3     -3.514860  1 B  s          
    25     -3.391500  1 B  dyy               27     -3.162597  1 B  dzz        
     5      2.771738  1 B  s                 45     -2.454235  2 H  s          
    54     -2.454235  3 H  s                  6      2.101487  1 B  s          
    33     -1.968536  1 B  dzz               15      1.715479  1 B  pz         

 Vector   32  Occ=0.000000D+00  E= 8.858381D-01
              MO Center=  1.2D-09,  1.2D-10, -1.9D-01, r^2= 3.5D+00
   Bfn.  Coefficient  Atom+Function         Bfn.  Coefficient  Atom+Function  
  ----- ------------  ---------------      ----- ------------  ---------------
    46      3.349202  2 H  s                 55     -3.349202  3 H  s          
    24      2.760333  1 B  dxz               45     -2.509553  2 H  s          
    54      2.509553  3 H  s                 13      2.057572  1 B  px         
    30     -1.054504  1 B  dxz                7     -0.711935  1 B  px         
    34     -0.585910  1 B  fxxx              39     -0.504692  1 B  fxzz       

 Vector   33  Occ=0.000000D+00  E= 1.006814D+00
              MO Center=  1.6D-10, -6.9D-10,  3.1D-01, r^2= 5.8D+00
   Bfn.  Coefficient  Atom+Function         Bfn.  Coefficient  Atom+Function  
  ----- ------------  ---------------      ----- ------------  ---------------
     5     12.585931  1 B  s                  4      8.337822  1 B  s          
     3     -7.946680  1 B  s                 22     -7.496206  1 B  dxx        
    27     -6.502422  1 B  dzz               25     -6.350957  1 B  dyy        
     6      5.641908  1 B  s                 31     -4.255957  1 B  dyy        
    28     -3.989119  1 B  dxx               33     -3.987482  1 B  dzz        

 Vector   34  Occ=0.000000D+00  E= 1.051892D+00
              MO Center= -3.1D-10, -1.5D-11, -2.7D-02, r^2= 4.0D+00
   Bfn.  Coefficient  Atom+Function         Bfn.  Coefficient  Atom+Function  
  ----- ------------  ---------------      ----- ------------  ---------------
     5     14.740025  1 B  s                 46     -9.044494  2 H  s          
    55     -9.044494  3 H  s                 12     -6.075129  1 B  pz         
     4      3.632770  1 B  s                 50     -3.255418  2 H  px         
    59      3.255418  3 H  px                28     -2.730324  1 B  dxx        
    31     -2.219838  1 B  dyy               22      2.164270  1 B  dxx        

 Vector   35  Occ=0.000000D+00  E= 1.117936D+00
              MO Center=  1.6D-10, -4.0D-11, -2.0D-01, r^2= 3.9D+00
   Bfn.  Coefficient  Atom+Function         Bfn.  Coefficient  Atom+Function  
  ----- ------------  ---------------      ----- ------------  ---------------
    10      8.623477  1 B  px                46      5.797212  2 H  s          
    55     -5.797212  3 H  s                 24     -3.021799  1 B  dxz        
    50      2.362082  2 H  px                59      2.362082  3 H  px         
    45      2.074922  2 H  s                 54     -2.074922  3 H  s          
     7     -1.292482  1 B  px                37     -1.216190  1 B  fxyy       

 Vector   36  Occ=0.000000D+00  E= 1.612801D+00
              MO Center= -3.7D-10,  3.5D-10,  2.2D-02, r^2= 1.9D+00
   Bfn.  Coefficient  Atom+Function         Bfn.  Coefficient  Atom+Function  
  ----- ------------  ---------------      ----- ------------  ---------------
    24      1.435709  1 B  dxz               39      1.029265  1 B  fxzz       
    10     -0.787628  1 B  px                45     -0.621508  2 H  s          
    54      0.621508  3 H  s                 30     -0.603525  1 B  dxz        
    46     -0.604693  2 H  s                 55      0.604693  3 H  s          
    34     -0.597674  1 B  fxxx              18     -0.417300  1 B  dxz        

 Vector   37  Occ=0.000000D+00  E= 1.636141D+00
              MO Center= -3.1D-09, -3.1D-10, -1.4D-01, r^2= 1.7D+00
   Bfn.  Coefficient  Atom+Function         Bfn.  Coefficient  Atom+Function  
  ----- ------------  ---------------      ----- ------------  ---------------
    35      1.510979  1 B  fxxy              14      0.696881  1 B  py         
    51     -0.488936  2 H  py                60     -0.488936  3 H  py         
    32     -0.436051  1 B  dyz               48      0.423297  2 H  py         
    57      0.423297  3 H  py                26      0.369959  1 B  dyz        
    40     -0.321008  1 B  fyyy              20     -0.248964  1 B  dyz        

 Vector   38  Occ=0.000000D+00  E= 1.659762D+00
              MO Center=  2.8D-09, -3.6D-10, -8.9D-03, r^2= 1.8D+00
   Bfn.  Coefficient  Atom+Function         Bfn.  Coefficient  Atom+Function  
  ----- ------------  ---------------      ----- ------------  ---------------
    38      2.199225  1 B  fxyz              23      1.015329  1 B  dxy        
    17     -0.664427  1 B  dxy               29     -0.659706  1 B  dxy        
    48      0.422973  2 H  py                57     -0.422973  3 H  py         
    51     -0.265886  2 H  py                60      0.265886  3 H  py         

 Vector   39  Occ=0.000000D+00  E= 1.814561D+00
              MO Center=  2.4D-10,  5.6D-11,  6.5D-02, r^2= 1.5D+00
   Bfn.  Coefficient  Atom+Function         Bfn.  Coefficient  Atom+Function  
  ----- ------------  ---------------      ----- ------------  ---------------
     4      4.419535  1 B  s                  3     -1.947609  1 B  s          
     5      1.896410  1 B  s                 41      1.786815  1 B  fyyz       
    27     -1.571948  1 B  dzz               25     -1.240826  1 B  dyy        
    46     -0.957089  2 H  s                 55     -0.957089  3 H  s          
    43     -0.801896  1 B  fzzz              45     -0.524368  2 H  s          

 Vector   40  Occ=0.000000D+00  E= 1.842981D+00
              MO Center=  2.6D-12,  2.7D-10,  1.4D-01, r^2= 1.3D+00
   Bfn.  Coefficient  Atom+Function         Bfn.  Coefficient  Atom+Function  
  ----- ------------  ---------------      ----- ------------  ---------------
    42      2.364281  1 B  fyzz              35     -0.687383  1 B  fxxy       
    40     -0.670583  1 B  fyyy              20     -0.246023  1 B  dyz        
    26      0.220072  1 B  dyz               11      0.073334  1 B  py         
    32     -0.060024  1 B  dyz               14     -0.041156  1 B  py         
     8      0.034510  1 B  py         

 Vector   41  Occ=0.000000D+00  E= 1.906370D+00
              MO Center=  1.9D-10, -9.7D-10, -7.2D-03, r^2= 1.9D+00
   Bfn.  Coefficient  Atom+Function         Bfn.  Coefficient  Atom+Function  
  ----- ------------  ---------------      ----- ------------  ---------------
     4     13.228013  1 B  s                  3     -6.318114  1 B  s          
[...]
           0.000000000000           0.000000000000           8.153073017355

     Multipole analysis of the density
     ---------------------------------

     L   x y z        total         alpha         beta         nuclear
     -   - - -        -----         -----         ----         -------
     0   0 0 0     -0.000000     -4.000000     -3.000000      7.000000

     1   1 0 0     -0.000000      0.000000     -0.000000      0.000000
     1   0 1 0      0.000000      0.000000     -0.000000      0.000000
     1   0 0 1     -0.204125     -0.640771      0.436646      0.000000

     2   2 0 0     -6.130358     -7.694917     -6.525212      8.089771
     2   1 1 0      0.000000      0.000000      0.000000      0.000000
     2   1 0 1      0.000000      0.000000      0.000000      0.000000
     2   0 2 0     -4.960265     -3.098835     -1.861430      0.000000
     2   0 1 1      0.000000      0.000000     -0.000000      0.000000
     2   0 0 2     -6.995664     -6.117939     -2.217195      1.339470

  int_init: cando_txs set to always be  F
                                NWChem TDDFT Module
                                -------------------


            General Information
            -------------------
           No. of orbitals :     122
            Alpha orbitals :      61
             Beta orbitals :      61
        Alpha frozen cores :       0
         Beta frozen cores :       0
     Alpha frozen virtuals :       0
      Beta frozen virtuals :       0
         Spin multiplicity :       2
    Number of AO functions :      61
        Use of symmetry is : off
      Symmetry adaption is : off
         Schwarz screening :  0.10D-07

              XC Information
              --------------
              Hartree-Fock (Exact) Exchange   1.00          
              LC-wPBE(h)Exchange Functional   1.00          
     Perdew 1991 LDA Correlation Functional   1.00 local    
    PerdewBurkeErnz. Correlation Functional   1.00 non-local
           Alpha           :  0.00
           Beta            :  1.00
           Gamma           :  0.37

             TDDFT Information
             -----------------
          Calculation type : Tamm-Dancoff TDDFT
         Wavefunction type : Unrestricted
          No. of electrons :       7
           Alpha electrons :       4
            Beta electrons :       3
              No. of roots :      10
          Max subspacesize :    6000
            Max iterations :     100
               Target root :       1
           Target symmetry : none
      Symmetry restriction : off
                 Algorithm : Optimal
        Davidson threshold :  0.10D-03

            Memory Information
            ------------------
          Available GA space size is       52428792558 doubles
          Available MA space size is        4194407868 doubles
          Length of a trial vector is          228     174
          Algorithm : Incore multiple tensor contraction
          Estimated peak GA usage is           8453066 doubles
          Estimated peak MA usage is             51000 doubles

   10 smallest eigenvalue differences (eV) 
--------------------------------------------------------
  No. Spin  Occ  Vir  Irrep   E(Occ)    E(Vir)   E(Diff)
--------------------------------------------------------
    1    1    4    5 a        -0.327    -0.002     8.854
    2    1    4    6 a        -0.327     0.039     9.951
    3    1    4    7 a        -0.327     0.135    12.563
    4    1    4    8 a        -0.327     0.145    12.837
    5    1    4    9 a        -0.327     0.152    13.023
    6    1    4   10 a        -0.327     0.160    13.245
    7    1    3    5 a        -0.493    -0.002    13.368
    8    1    4   11 a        -0.327     0.168    13.478
    9    1    4   12 a        -0.327     0.169    13.497
   10    2    3    4 a        -0.484     0.019    13.678
--------------------------------------------------------

  Entering Davidson iterations
  Unrestricted

  Iter   NTrls   NConv    DeltaV     DeltaE      Time   
  ----  ------  ------  ---------  ---------  --------- 
    1     10       0     0.75E-01   0.10+100        9.4
    2     20       0     0.31E-01   0.16E-01       10.5
    3     30       0     0.11E+00   0.39E-02       10.5
    4     40       0     0.72E-01   0.25E-01       10.6
    5     50       3     0.31E-01   0.69E-02       10.3
    6     57       5     0.83E-02   0.74E-03        7.8
    7     62       6     0.22E-02   0.55E-04        5.9
    8     66       7     0.49E-03   0.28E-05        5.0
    9     69      10     0.73E-04   0.14E-06        4.2
  ----  ------  ------  ---------  ---------  --------- 
  Convergence criterion met

  Ground state a         -25.909927420525 a.u.
  <S2> =   0.7521

  ----------------------------------------------------------------------------
  Root   1         a              0.047150220 a.u.                1.2830 eV 
  <S2> =   0.7552
  ----------------------------------------------------------------------------
     Transition Moments    X  0.00000   Y  0.33296   Z  0.00000
     Transition Moments   XX  0.00000  XY  0.00000  XZ  0.00000
     Transition Moments   YY -0.00000  YZ  1.26686  ZZ  0.00000
     Dipole Oscillator Strength                    0.0034847423
     Electric Quadrupole                           0.0000000009
     Magnetic Dipole                               0.0000003956
     Total Oscillator Strength                     0.0034851389

     Occ.    4 alpha a   ---  Virt.    5 alpha a       -0.98172
     Occ.    4 alpha a   ---  Virt.   15 alpha a        0.17262
  ----------------------------------------------------------------------------
  Root   2         a              0.197483554 a.u.                5.3738 eV 
  <S2> =   2.6853
  ----------------------------------------------------------------------------
     Transition Moments    X  0.00000   Y -0.00000   Z -0.00000
     Transition Moments   XX -0.00000  XY -0.22399  XZ  0.00000
     Transition Moments   YY -0.00000  YZ -0.00000  ZZ -0.00000
     Dipole Oscillator Strength                    0.0000000000
     Electric Quadrupole                           0.0000000021
     Magnetic Dipole                               0.0000000964
     Total Oscillator Strength                     0.0000000985

     Occ.    3 alpha a   ---  Virt.    5 alpha a        0.80404
     Occ.    3 alpha a   ---  Virt.   15 alpha a       -0.15838
     Occ.    3 beta  a   ---  Virt.    4 beta  a       -0.55020
     Occ.    3 beta  a   ---  Virt.   15 beta  a        0.13281
  ----------------------------------------------------------------------------
  Root   3         a              0.213750935 a.u.                5.8165 eV 
  <S2> =   0.7627
  ----------------------------------------------------------------------------
     Transition Moments    X -0.00000   Y -0.00000   Z  0.65258
     Transition Moments   XX -0.01747  XY  0.00000  XZ  0.00000
     Transition Moments   YY  0.58567  YZ -0.00000  ZZ  0.89623
     Dipole Oscillator Strength                    0.0606858479
     Electric Quadrupole                           0.0000000112
     Magnetic Dipole                               0.0000000000
     Total Oscillator Strength                     0.0606858591

     Occ.    4 alpha a   ---  Virt.    6 alpha a       -0.93493
     Occ.    4 alpha a   ---  Virt.   11 alpha a        0.32915
     Occ.    4 alpha a   ---  Virt.   14 alpha a        0.07283
     Occ.    4 alpha a   ---  Virt.   22 alpha a       -0.06330
  ----------------------------------------------------------------------------
  Root   4         a              0.234995315 a.u.                6.3946 eV 
  <S2> =   0.8181
  ----------------------------------------------------------------------------
     Transition Moments    X  0.00000   Y  0.00000   Z  0.00000
     Transition Moments   XX -0.00000  XY -1.39379  XZ -0.00000
     Transition Moments   YY  0.00000  YZ -0.00000  ZZ -0.00000
     Dipole Oscillator Strength                    0.0000000000
     Electric Quadrupole                           0.0000001342
     Magnetic Dipole                               0.0000036410
     Total Oscillator Strength                     0.0000037753

     Occ.    3 alpha a   ---  Virt.    5 alpha a        0.56276
     Occ.    3 alpha a   ---  Virt.   15 alpha a       -0.08033
     Occ.    3 beta  a   ---  Virt.    4 beta  a        0.80669
     Occ.    3 beta  a   ---  Virt.   15 beta  a       -0.14937
  ----------------------------------------------------------------------------
  Root   5         a              0.242489127 a.u.                6.5985 eV 
  <S2> =   0.7838
  ----------------------------------------------------------------------------
     Transition Moments    X -0.06729   Y -0.00000   Z -0.00000
     Transition Moments   XX  0.00000  XY -0.00000  XZ  1.09318
     Transition Moments   YY -0.00000  YZ  0.00000  ZZ -0.00000
     Dipole Oscillator Strength                    0.0007319631
     Electric Quadrupole                           0.0000000907
     Magnetic Dipole                               0.0000017959
     Total Oscillator Strength                     0.0007338497

     Occ.    4 alpha a   ---  Virt.    7 alpha a       -0.07968
     Occ.    4 alpha a   ---  Virt.   10 alpha a        0.05353
     Occ.    3 beta  a   ---  Virt.    5 beta  a       -0.88312
     Occ.    3 beta  a   ---  Virt.    6 beta  a        0.38109
     Occ.    3 beta  a   ---  Virt.    9 beta  a        0.07897
     Occ.    3 beta  a   ---  Virt.   12 beta  a       -0.13235
     Occ.    3 beta  a   ---  Virt.   14 beta  a       -0.16263
     Occ.    3 beta  a   ---  Virt.   24 beta  a        0.05013
  ----------------------------------------------------------------------------
  Root   6         a              0.275177190 a.u.                7.4880 eV 
  <S2> =   0.7719
  ----------------------------------------------------------------------------
     Transition Moments    X  0.00000   Y -0.00000   Z  0.28252
     Transition Moments   XX  0.08616  XY  0.00000  XZ  0.00000
     Transition Moments   YY  0.36707  YZ -0.00000  ZZ  0.04911
     Dipole Oscillator Strength                    0.0146430528
     Electric Quadrupole                           0.0000000034
     Magnetic Dipole                               0.0000000000
     Total Oscillator Strength                     0.0146430562

     Occ.    4 alpha a   ---  Virt.    6 alpha a       -0.08514
     Occ.    4 alpha a   ---  Virt.    8 alpha a        0.91413
     Occ.    4 alpha a   ---  Virt.    9 alpha a        0.19551
     Occ.    4 alpha a   ---  Virt.   11 alpha a       -0.06934
     Occ.    4 alpha a   ---  Virt.   14 alpha a       -0.12147
     Occ.    4 alpha a   ---  Virt.   16 alpha a       -0.24353
     Occ.    4 alpha a   ---  Virt.   18 alpha a       -0.15669
     Occ.    4 alpha a   ---  Virt.   23 alpha a       -0.05058
     Occ.    2 beta  a   ---  Virt.    5 beta  a        0.07374
  ----------------------------------------------------------------------------
  Root   7         a              0.279124675 a.u.                7.5954 eV 
  <S2> =   0.7651
  ----------------------------------------------------------------------------
     Transition Moments    X -0.36094   Y  0.00000   Z  0.00000
     Transition Moments   XX  0.00000  XY  0.00000  XZ -1.67588
     Transition Moments   YY  0.00000  YZ  0.00000  ZZ  0.00000
     Dipole Oscillator Strength                    0.0242429318
     Electric Quadrupole                           0.0000003252
     Magnetic Dipole                               0.0000001824
     Total Oscillator Strength                     0.0242434394

     Occ.    4 alpha a   ---  Virt.    7 alpha a        0.81501
     Occ.    4 alpha a   ---  Virt.   10 alpha a        0.56142
     Occ.    4 alpha a   ---  Virt.   24 alpha a       -0.10714
  ----------------------------------------------------------------------------
  Root   8         a              0.291738453 a.u.                7.9386 eV 
  <S2> =   0.7750
  ----------------------------------------------------------------------------
     Transition Moments    X  0.80143   Y  0.00000   Z -0.00000
     Transition Moments   XX  0.00000  XY  0.00000  XZ  0.34800
     Transition Moments   YY  0.00000  YZ  0.00000  ZZ -0.00000
     Dipole Oscillator Strength                    0.1249218145
     Electric Quadrupole                           0.0000000160
     Magnetic Dipole                               0.0000002413
     Total Oscillator Strength                     0.1249220718

     Occ.    3 alpha a   ---  Virt.    6 alpha a       -0.05350
     Occ.    4 alpha a   ---  Virt.    7 alpha a        0.53918
     Occ.    4 alpha a   ---  Virt.   10 alpha a       -0.79681
     Occ.    4 alpha a   ---  Virt.   17 alpha a        0.19440
     Occ.    4 alpha a   ---  Virt.   24 alpha a       -0.08999
     Occ.    3 beta  a   ---  Virt.    5 beta  a       -0.08725
     Occ.    3 beta  a   ---  Virt.    8 beta  a        0.05339
  ----------------------------------------------------------------------------
  Root   9         a              0.300565990 a.u.                8.1788 eV 
  <S2> =   0.7792
  ----------------------------------------------------------------------------
     Transition Moments    X -0.00000   Y  0.00000   Z -0.35173
     Transition Moments   XX -0.44439  XY -0.00000  XZ -0.00000
     Transition Moments   YY -0.90371  YZ  0.00000  ZZ -3.34652
     Dipole Oscillator Strength                    0.0247894002
     Electric Quadrupole                           0.0000003519
     Magnetic Dipole                               0.0000000000
     Total Oscillator Strength                     0.0247897520

     Occ.    4 alpha a   ---  Virt.    6 alpha a       -0.07078
     Occ.    4 alpha a   ---  Virt.    8 alpha a        0.12718
     Occ.    4 alpha a   ---  Virt.    9 alpha a       -0.85910
     Occ.    4 alpha a   ---  Virt.   14 alpha a       -0.44551
     Occ.    4 alpha a   ---  Virt.   23 alpha a        0.08659
     Occ.    2 beta  a   ---  Virt.    6 beta  a       -0.06284
     Occ.    3 beta  a   ---  Virt.    7 beta  a       -0.09725
  ----------------------------------------------------------------------------
  Root  10         a              0.309948518 a.u.                8.4341 eV 
  <S2> =   0.7616
  ----------------------------------------------------------------------------
     Transition Moments    X  0.00000   Y  0.00000   Z -0.00000
     Transition Moments   XX -0.00000  XY -0.56493  XZ  0.00000
     Transition Moments   YY  0.00000  YZ  0.00000  ZZ  0.00000
     Dipole Oscillator Strength                    0.0000000000
     Electric Quadrupole                           0.0000000506
     Magnetic Dipole                               0.0000000415
     Total Oscillator Strength                     0.0000000921

     Occ.    4 alpha a   ---  Virt.   12 alpha a        0.98865
     Occ.    4 alpha a   ---  Virt.   20 alpha a       -0.12532
     Occ.    4 alpha a   ---  Virt.   28 alpha a        0.07359

              Target root =      1
          Target symmetry = none
      Ground state energy =    -25.909927420525
        Excitation energy =      0.047150219827
     Excited state energy =    -25.862777200698

  stored tddft:energy   -25.862777200697856     

 Task  times  cpu:       67.3s     wall:       77.9s


                                NWChem Input Module
                                -------------------


 Summary of allocated global arrays
-----------------------------------
  No active global arrays


MA_summarize_allocated_blocks: starting scan ...
heap block 'gridpts', handle 126, address 0x1371fca8:
	type of elements:		double precision
	number of elements:		1048470813
	address of client space:	0x1371fd00
	index for client space:		12622583
	total number of bytes:		8387766600
MA_summarize_allocated_blocks: scan completed: 1 heap block, 0 stack blocks
MA usage statistics:

	allocation statistics:
					      heap	     stack
					      ----	     -----
	current number of blocks	         1	         0
	maximum number of blocks	        18	        53
	current total bytes		8387766600	         0
	maximum total bytes		8389837680	  22513928
	maximum total K-bytes		   8389838	     22514
	maximum total M-bytes		      8390	        23


                                     CITATION
                                     --------
                Please cite the following reference when publishing
                           results obtained with NWChem:

          E. Apra, E. J. Bylaska, W. A. de Jong, N. Govind, K. Kowalski,
       T. P. Straatsma, M. Valiev, H. J. J. van Dam, Y. Alexeev, J. Anchell,
       V. Anisimov, F. W. Aquino, R. Atta-Fynn, J. Autschbach, N. P. Bauman,
     J. C. Becca, D. E. Bernholdt, K. Bhaskaran-Nair, S. Bogatko, P. Borowski,
         J. Boschen, J. Brabec, A. Bruner, E. Cauet, Y. Chen, G. N. Chuev,
      C. J. Cramer, J. Daily, M. J. O. Deegan, T. H. Dunning Jr., M. Dupuis,
   K. G. Dyall, G. I. Fann, S. A. Fischer, A. Fonari, H. Fruchtl, L. Gagliardi,
      J. Garza, N. Gawande, S. Ghosh, K. Glaesemann, A. W. Gotz, J. Hammond,
       V. Helms, E. D. Hermes, K. Hirao, S. Hirata, M. Jacquelin, L. Jensen,
   B. G. Johnson, H. Jonsson, R. A. Kendall, M. Klemm, R. Kobayashi, V. Konkov,
      S. Krishnamoorthy, M. Krishnan, Z. Lin, R. D. Lins, R. J. Littlefield,
      A. J. Logsdail, K. Lopata, W. Ma, A. V. Marenich, J. Martin del Campo,
   D. Mejia-Rodriguez, J. E. Moore, J. M. Mullin, T. Nakajima, D. R. Nascimento,
    J. A. Nichols, P. J. Nichols, J. Nieplocha, A. Otero-de-la-Roza, B. Palmer,
    A. Panyala, T. Pirojsirikul, B. Peng, R. Peverati, J. Pittner, L. Pollack,
   R. M. Richard, P. Sadayappan, G. C. Schatz, W. A. Shelton, D. W. Silverstein,
   D. M. A. Smith, T. A. Soares, D. Song, M. Swart, H. L. Taylor, G. S. Thomas,
            V. Tipparaju, D. G. Truhlar, K. Tsemekhman, T. Van Voorhis,
      A. Vazquez-Mayagoitia, P. Verma, O. Villa, A. Vishnu, K. D. Vogiatzis,
        D. Wang, J. H. Weare, M. J. Williamson, T. L. Windus, K. Wolinski,
        A. T. Wong, Q. Wu, C. Yang, Q. Yu, M. Zacharias, Z. Zhang, Y. Zhao,
                                and R. J. Harrison
                        "NWChem: Past, present, and future
                         J. Chem. Phys. 152, 184102 (2020)
                               doi:10.1063/5.0004997

                                      AUTHORS
                                      -------
  E. Apra, E. J. Bylaska, N. Govind, K. Kowalski, M. Valiev, D. Mejia-Rodriguez,
       A. Kunitsa, N. P. Bauman, A. Panyala, W. A. de Jong, T. P. Straatsma,
   H. J. J. van Dam, D. Wang, T. L. Windus, J. Hammond, J. Autschbach, A. Woods,
    K. Bhaskaran-Nair, J. Brabec, K. Lopata, S. A. Fischer, S. Krishnamoorthy,
     M. Jacquelin, W. Ma, M. Klemm, O. Villa, Y. Chen, V. Anisimov, F. Aquino,
     S. Hirata, M. T. Hackler, E. Hermes, L. Jensen, J. E. Moore, J. C. Becca,
      V. Konjkov, T. Risthaus, M. Malagoli, A. Marenich, A. Otero-de-la-Roza,
        J. Mullin, P. Nichols, R. Peverati, J. Pittner, Y. Zhao, P.-D. Fan,
        A. Fonari, M. J. Williamson, R. J. Harrison, J. R. Rehr, M. Dupuis,
     D. Silverstein, D. M. A. Smith, J. Nieplocha, V. Tipparaju, M. Krishnan,
     B. E. Van Kuiken, A. Vazquez-Mayagoitia, M. Swart, Q. Wu, T. Van Voorhis,
     A. A. Auer, M. Nooijen, L. D. Crosby, E. Brown, G. Cisneros, G. I. Fann,
   H. Fruchtl, J. Garza, K. Hirao, R. A. Kendall, J. A. Nichols, K. Tsemekhman,
    K. Wolinski, J. Anchell, D. E. Bernholdt, P. Borowski, T. Clark, D. Clerc,
   H. Dachsel, M. J. O. Deegan, K. Dyall, D. Elwood, E. Glendening, M. Gutowski,
   A. C. Hess, J. Jaffe, B. G. Johnson, J. Ju, R. Kobayashi, R. Kutteh, Z. Lin,
   R. Littlefield, X. Long, B. Meng, T. Nakajima, S. Niu, L. Pollack, M. Rosing,
   K. Glaesemann, G. Sandrone, M. Stave, H. Taylor, G. Thomas, J. H. van Lenthe,
                               A. T. Wong, Z. Zhang.

 Total times  cpu:       67.3s     wall:       78.2s
