 argument  1 = /home/aditisingh4812/nw_chem/nwchem-run/nwchem-run/tddft/open/gdd_open/geom-MOL-2/cn.nw
                                         
                                         


             Northwest Computational Chemistry Package (NWChem) 7.2.3
             --------------------------------------------------------


                    Environmental Molecular Sciences Laboratory
                       Pacific Northwest National Laboratory
                                Richland, WA 99352

                              Copyright (c) 1994-2022
                       Pacific Northwest National Laboratory
                            Battelle Memorial Institute

             NWChem is an open-source computational chemistry package
                        distributed under the terms of the
                      Educational Community License (ECL) 2.0
             A copy of the license is included with this distribution
                              in the LICENSE.TXT file

                                  ACKNOWLEDGMENT
                                  --------------

            This software and its documentation were developed at the
            EMSL at Pacific Northwest National Laboratory, a multiprogram
            national laboratory, operated for the U.S. Department of Energy
            by Battelle under Contract Number DE-AC05-76RL01830. Support
            for this work was provided by the Department of Energy Office
            of Biological and Environmental Research, Office of Basic
            Energy Sciences, and the Office of Advanced Scientific Computing.


           Job information
           ---------------

    hostname        = p21
    program         = /home/aditisingh4812/nw_chem/nwchem-7.2.3-release.revision-d690e065-srconly.2024-08-27/nwchem-7.2.3/bin/LINUX64/nwchem
    date            = Fri Apr 18 19:39:57 2025

    compiled        = Mon_Apr_07_18:51:54_2025
    source          = /home/aditisingh4812/nw_chem/nwchem-7.2.3-release.revision-d690e065-srconly.2024-08-27/nwchem-7.2.3
    nwchem branch   = 7.2.3
    nwchem revision = d690e065
    ga revision     = 5.8.0
    use scalapack   = F
    input           = /home/aditisingh4812/nw_chem/nwchem-run/nwchem-run/tddft/open/gdd_open/geom-MOL-2/cn.nw
    prefix          = cn.
    data base       = ./cn.db
    status          = startup
    nproc           =        8
    time left       =     -1s



           Memory information
           ------------------

    heap     = 2621439998 doubles =  20000.0 Mbytes
    stack    = 2621439995 doubles =  20000.0 Mbytes
    global   = 6553600000 doubles =  50000.0 Mbytes (distinct from heap & stack)
    total    = ********** doubles =  90000.0 Mbytes
    verify   = yes
    hardfail = no 


           Directory information
           ---------------------

  0 permanent = .
  0 scratch   = .




                                NWChem Input Module
                                -------------------



 Scaling coordinates for geometry "geometry" by  1.889725989
 (inverse scale =  0.529177249)



                             Geometry "geometry" -> ""
                             -------------------------

 Output coordinates in angstroms (scale by  1.889725989 to convert to a.u.)

  No.       Tag          Charge          X              Y              Z
 ---- ---------------- ---------- -------------- -------------- --------------
    1 C                    6.0000     0.00000000     0.00000000    -0.62941308
    2 N                    7.0000     0.00000000     0.00000000     0.53949692

      Atomic Mass 
      ----------- 

      C                 12.000000
      N                 14.003070


 Effective nuclear repulsion energy (a.u.)      19.0138201042

            Nuclear Dipole moment (a.u.) 
            ----------------------------
        X                 Y               Z
 ---------------- ---------------- ----------------
     0.0000000000     0.0000000000    -0.0000000000


            XYZ format geometry
            -------------------
     2
 geometry
 C                     0.00000000     0.00000000    -0.62941308
 N                     0.00000000     0.00000000     0.53949692

 ==============================================================================
                                internuclear distances
 ------------------------------------------------------------------------------
       center one      |      center two      | atomic units |  angstroms
 ------------------------------------------------------------------------------
    2 N                |   1 C                |     2.20892  |     1.16891
 ------------------------------------------------------------------------------
                         number of included internuclear distances:          1
 ==============================================================================





 Summary of "ao basis" -> "" (cartesian)
 ------------------------------------------------------------------------------
       Tag                 Description            Shells   Functions and Types
 ---------------- ------------------------------  ------  ---------------------
 *                         def2-TZVPD                 on all atoms 


  pbe96 is a nonlocal functional; adding pw91lda local functional. 

                                 NWChem DFT Module
                                 -----------------


                      Basis "ao basis" -> "ao basis" (cartesian)
                      -----
  C (Carbon)
  ----------
            Exponent  Coefficients 
       -------------- ---------------------------------------------------------
  1 S  1.35753497E+04  0.000222
  1 S  2.03523337E+03  0.001723
  1 S  4.63225624E+02  0.008926
  1 S  1.31200196E+02  0.035728
  1 S  4.28530159E+01  0.110763
  1 S  1.55841858E+01  0.242956

  2 S  6.20671385E+00  0.414403
  2 S  2.57648965E+00  0.237450

  3 S  5.76963394E-01  1.000000

  4 S  2.29728314E-01  1.000000

  5 S  9.51644400E-02  1.000000

  6 S  4.84754014E-02  1.000000

  7 P  3.46972322E+01  0.005333
  7 P  7.95826228E+00  0.035864
  7 P  2.37808269E+00  0.142159
  7 P  8.14332082E-01  0.342705

  8 P  2.88875473E-01  1.000000

  9 P  1.00568237E-01  1.000000

 10 D  1.09700000E+00  1.000000

 11 D  3.18000000E-01  1.000000

 12 D  9.09853364E-02  1.000000

 13 F  7.61000000E-01  1.000000

  N (Nitrogen)
  ------------
            Exponent  Coefficients 
       -------------- ---------------------------------------------------------
  1 S  1.97308006E+04  0.000219
  1 S  2.95789587E+03  0.001696
  1 S  6.73221336E+02  0.008795
  1 S  1.90682495E+02  0.035359
  1 S  6.22954419E+01  0.110958
  1 S  2.26541612E+01  0.249830

  2 S  8.97914774E+00  0.406239
  2 S  3.68630024E+00  0.243382

  3 S  8.46600768E-01  1.000000

  4 S  3.36471338E-01  1.000000

  5 S  1.36476537E-01  1.000000

  6 S  6.84416058E-02  1.000000

  7 P  4.92003805E+01  0.005555
  7 P  1.13467905E+01  0.038052
  7 P  3.42739724E+00  0.149537
  7 P  1.17855251E+00  0.349493

  8 P  4.16422050E-01  1.000000

  9 P  1.42608260E-01  1.000000

 10 D  1.65400000E+00  1.000000

 11 D  4.69000000E-01  1.000000

 12 D  1.28296421E-01  1.000000

 13 F  1.09300000E+00  1.000000



 Summary of "ao basis" -> "ao basis" (cartesian)
 ------------------------------------------------------------------------------
       Tag                 Description            Shells   Functions and Types
 ---------------- ------------------------------  ------  ---------------------
 C                         def2-TZVPD               13       43   6s3p3d1f
 N                         def2-TZVPD               13       43   6s3p3d1f




 Summary of "ao basis" -> "ao basis" (cartesian)
 ------------------------------------------------------------------------------
       Tag                 Description            Shells   Functions and Types
 ---------------- ------------------------------  ------  ---------------------
 C                         def2-TZVPD               13       43   6s3p3d1f
 N                         def2-TZVPD               13       43   6s3p3d1f


  int_init: cando_txs set to always be  F
  Caching 1-el integrals 

            General Information
            -------------------
          SCF calculation type: DFT
          Wavefunction type:  spin polarized.
          No. of atoms     :     2
          No. of electrons :    13
           Alpha electrons :     7
            Beta electrons :     6
          Charge           :     0
          Spin multiplicity:     2
          Use of symmetry is: off; symmetry adaption is: off
          Maximum number of iterations:  50
          AO basis - number of functions:    86
                     number of shells:    26
          Convergence on energy requested:  1.00D-06
          Convergence on density requested:  1.00D-05
          Convergence on gradient requested:  5.00D-04

              XC Information
              --------------
                     Hartree-Fock (Exact) Exchange  1.000          
                     LC-wPBE(h)Exchange Functional  1.000          
            Perdew 1991 LDA Correlation Functional  1.000 local    
           PerdewBurkeErnz. Correlation Functional  1.000 non-local

           Range-Separation Parameters        
           ---------------------------
           Alpha           :  0.00
           Beta            :  1.00
           Gamma           :  0.37
           Short-Range HF  :     F

             Grid Information
             ----------------
          Grid used for XC integration:  xfine     
          Radial quadrature: Mura-Knowles        
          Angular quadrature: Lebedev. 
          Tag              B.-S. Rad. Rad. Pts. Rad. Cut. Ang. Pts.
          ---              ---------- --------- --------- ---------
          C                   0.70      100           9.0      1454
          N                   0.65      100           9.0      1454
          Grid pruning is: on 
          Number of quadrature shells:   200
          Spatial weights used:  Erf1

          Convergence Information
          -----------------------
          Convergence aids based upon iterative change in 
          total energy or number of iterations. 
          Levelshifting, if invoked, occurs when the 
          HOMO/LUMO gap drops below (HL_TOL):  1.00D-02
          DIIS, if invoked, will attempt to extrapolate 
          using up to (NFOCK): 10 stored Fock matrices.

                    Damping( 0%)  Levelshifting(0.5)       DIIS
                  --------------- ------------------- ---------------
          dE  on:    start            ASAP                start   
          dE off:    2 iters         50 iters            50 iters 


      Screening Tolerance Information
      -------------------------------
          Density screening/tol_rho:  1.00D-10
          AO Gaussian exp screening on grid/accAOfunc:  14
          CD Gaussian exp screening on grid/accCDfunc:  20
          XC Gaussian exp screening on grid/accXCfunc:  20
          Schwarz screening/accCoul:  1.00D-08

  
  CAM type calculations without CDFIT are
  only available with the direct option.
  Forcing Direct SCF
  

      Superposition of Atomic Density Guess
      -------------------------------------

 Sum of atomic energies:         -91.98288711

      Non-variational initial energy
      ------------------------------

 Total energy =     -92.333525
 1-e energy   =    -161.420466
 2-e energy   =      50.073121
 HOMO         =      -0.322283
 LUMO         =       0.060593

  WARNING: movecs_in_org=atomic not equal to movecs_in=./cn.movecs
   Time after variat. SCF:      0.2
   Time prior to 1st pass:      0.2

 Grid_pts file          = ./cn.gridpts.0
 Record size in doubles =  12289        No. of grid_pts per rec  =   3070
 Max. records in memory =     15        Max. recs in file   = 126656358


           Memory utilization after 1st SCF pass: 
           Heap Space remaining (MW):     1572.78          1572782614
          Stack Space remaining (MW):     2621.44          2621439196

   convergence    iter        energy       DeltaE   RMS-Dens  Diis-err    time
 ---------------- ----- ----------------- --------- --------- ---------  ------
 d= 0,ls=0.0,diis     1    -92.5969760573 -1.12D+02  3.90D-03  1.97D-01     0.9
                                                     3.64D-03  1.65D-01
 d= 0,ls=0.0,diis     2    -92.5534149106  4.36D-02  2.25D-03  2.48D-01     1.6
                                                     2.55D-03  2.51D-01
 d= 0,ls=0.0,diis     3    -92.6459272736 -9.25D-02  7.52D-04  3.17D-02     2.3
                                                     7.29D-04  2.63D-02
 d= 0,ls=0.0,diis     4    -92.6575550110 -1.16D-02  1.66D-04  5.28D-04     3.0
                                                     2.72D-04  4.28D-04
 d= 0,ls=0.0,diis     5    -92.6584101970 -8.55D-04  2.13D-04  2.56D-04     3.7
                                                     3.87D-04  1.90D-04
  Resetting Diis
 d= 0,ls=0.0,diis     6    -92.6593715992 -9.61D-04  3.50D-04  1.12D-04     4.4
                                                     5.88D-04  9.13D-05
 d= 0,ls=0.0,diis     7    -92.6602254669 -8.54D-04  5.39D-05  1.77D-05     5.1
                                                     6.71D-05  2.08D-05
 d= 0,ls=0.0,diis     8    -92.6602819646 -5.65D-05  6.23D-05  2.00D-05     5.8
                                                     5.36D-05  7.49D-06
 d= 0,ls=0.0,diis     9    -92.6603277043 -4.57D-05  7.51D-05  2.82D-06     6.5
                                                     1.11D-04  2.15D-05
 d= 0,ls=0.0,diis    10    -92.6603824344 -5.47D-05  7.57D-05  3.95D-06     7.2
                                                     9.29D-05  1.46D-06
 d= 0,ls=0.0,diis    11    -92.6604033889 -2.10D-05  1.55D-05  1.43D-07     7.9
                                                     2.20D-05  1.87D-07
 d= 0,ls=0.0,diis    12    -92.6604043465 -9.58D-07  2.78D-06  1.10D-08     8.6
                                                     3.37D-06  8.41D-09


         Total DFT energy =      -92.660404346515
      One electron energy =     -162.271424403986
           Coulomb energy =       62.667568871142
    Exchange-Corr. energy =      -12.070368917859
 Nuclear repulsion energy =       19.013820104189

 Numeric. integr. density =       13.000000006763

     Total iterative time =      8.4s



                    DFT Final Alpha Molecular Orbital Analysis
                    ------------------------------------------

 Vector    1  Occ=1.000000D+00  E=-1.425134D+01
              MO Center= -2.6D-10, -2.6D-10,  5.4D-01, r^2= 2.0D-02
   Bfn.  Coefficient  Atom+Function         Bfn.  Coefficient  Atom+Function  
  ----- ------------  ---------------      ----- ------------  ---------------
    45      0.619385  2 N  s                 44      0.449347  2 N  s          
    47     -0.109014  2 N  s                 46      0.098991  2 N  s          

 Vector    2  Occ=1.000000D+00  E=-1.021515D+01
              MO Center= -2.0D-10, -2.0D-10, -6.3D-01, r^2= 2.8D-02
   Bfn.  Coefficient  Atom+Function         Bfn.  Coefficient  Atom+Function  
  ----- ------------  ---------------      ----- ------------  ---------------
     2      0.599146  1 C  s                  1      0.467845  1 C  s          
     3      0.105547  1 C  s                  4     -0.105329  1 C  s          

 Vector    3  Occ=1.000000D+00  E=-1.077676D+00
              MO Center=  4.0D-09,  4.0D-09,  6.7D-02, r^2= 5.3D-01
   Bfn.  Coefficient  Atom+Function         Bfn.  Coefficient  Atom+Function  
  ----- ------------  ---------------      ----- ------------  ---------------
    46      0.322603  2 N  s                  3      0.259944  1 C  s          
    47      0.204192  2 N  s                 45     -0.188200  2 N  s          
     4      0.179956  1 C  s                  9      0.175775  1 C  pz         
    52     -0.159971  2 N  pz                 2     -0.148270  1 C  s          
    12      0.094033  1 C  pz                44     -0.086370  2 N  s          

 Vector    4  Occ=1.000000D+00  E=-6.267070D-01
              MO Center=  2.7D-09,  2.7D-09, -4.9D-01, r^2= 1.4D+00
   Bfn.  Coefficient  Atom+Function         Bfn.  Coefficient  Atom+Function  
  ----- ------------  ---------------      ----- ------------  ---------------
     4      0.442225  1 C  s                  3      0.303603  1 C  s          
    47     -0.254213  2 N  s                  9     -0.209572  1 C  pz         
    46     -0.209511  2 N  s                  2     -0.177190  1 C  s          
    12     -0.148714  1 C  pz                 5      0.147598  1 C  s          
    48     -0.146911  2 N  s                 45      0.122315  2 N  s          

 Vector    5  Occ=1.000000D+00  E=-5.218984D-01
              MO Center=  2.6D-08,  2.6D-08,  2.6D-01, r^2= 1.4D+00
   Bfn.  Coefficient  Atom+Function         Bfn.  Coefficient  Atom+Function  
  ----- ------------  ---------------      ----- ------------  ---------------
    52      0.376299  2 N  pz                 9     -0.331688  1 C  pz         
    47      0.284880  2 N  s                 12     -0.271210  1 C  pz         
    55      0.215304  2 N  pz                48      0.143836  2 N  s          
     5      0.139260  1 C  s                 58      0.122372  2 N  pz         
    46      0.107661  2 N  s                  4      0.102462  1 C  s          

 Vector    6  Occ=1.000000D+00  E=-5.083476D-01
              MO Center= -3.4D-08, -3.4D-08, -2.0D-02, r^2= 1.1D+00
   Bfn.  Coefficient  Atom+Function         Bfn.  Coefficient  Atom+Function  
  ----- ------------  ---------------      ----- ------------  ---------------
    50      0.232560  2 N  px                51      0.232232  2 N  py         
     7      0.229690  1 C  px                 8      0.229365  1 C  py         
    53      0.187864  2 N  px                54      0.187599  2 N  py         
    10      0.182382  1 C  px                11      0.182124  1 C  py         
    56      0.094836  2 N  px                57      0.094702  2 N  py         

 Vector    7  Occ=1.000000D+00  E=-5.083476D-01
              MO Center= -5.9D-10, -6.1D-10, -2.0D-02, r^2= 1.1D+00
   Bfn.  Coefficient  Atom+Function         Bfn.  Coefficient  Atom+Function  
  ----- ------------  ---------------      ----- ------------  ---------------
    50      0.232232  2 N  px                51     -0.232560  2 N  py         
     7      0.229365  1 C  px                 8     -0.229690  1 C  py         
    53      0.187599  2 N  px                54     -0.187864  2 N  py         
    10      0.182124  1 C  px                11     -0.182382  1 C  py         
    56      0.094702  2 N  px                57     -0.094836  2 N  py         

 Vector    8  Occ=0.000000D+00  E= 6.036375D-02
              MO Center= -4.6D-09, -8.6D-09, -1.5D+00, r^2= 1.1D+01
   Bfn.  Coefficient  Atom+Function         Bfn.  Coefficient  Atom+Function  
  ----- ------------  ---------------      ----- ------------  ---------------
     6      7.380512  1 C  s                 49     -2.402213  2 N  s          
    28     -1.670057  1 C  dxx               31     -1.670057  1 C  dyy        
    33     -1.605089  1 C  dzz                5     -0.832955  1 C  s          
     3     -0.657640  1 C  s                 58      0.466923  2 N  pz         
    22     -0.453574  1 C  dxx               25     -0.453574  1 C  dyy        

 Vector    9  Occ=0.000000D+00  E= 7.338251D-02
              MO Center= -1.1D-08, -1.0D-08, -3.1D-01, r^2= 2.2D+00
   Bfn.  Coefficient  Atom+Function         Bfn.  Coefficient  Atom+Function  
  ----- ------------  ---------------      ----- ------------  ---------------
    30      0.311618  1 C  dxz               32      0.302509  1 C  dyz        
    13     -0.233860  1 C  px                50      0.230681  2 N  px         
     7     -0.229529  1 C  px                14     -0.227025  1 C  py         
    53      0.227329  2 N  px                51      0.223939  2 N  py         
     8     -0.222820  1 C  py                54      0.220684  2 N  py         

 Vector   10  Occ=0.000000D+00  E= 7.338251D-02
              MO Center= -9.4D-10, -9.9D-10, -3.1D-01, r^2= 2.2D+00
   Bfn.  Coefficient  Atom+Function         Bfn.  Coefficient  Atom+Function  
  ----- ------------  ---------------      ----- ------------  ---------------
    32     -0.311618  1 C  dyz               30      0.302509  1 C  dxz        
    14      0.233860  1 C  py                51     -0.230681  2 N  py         
     8      0.229529  1 C  py                13     -0.227025  1 C  px         
    54     -0.227329  2 N  py                50      0.223939  2 N  px         
     7     -0.222820  1 C  px                53      0.220684  2 N  px         

 Vector   11  Occ=0.000000D+00  E= 1.205819D-01
              MO Center=  1.3D-08,  2.7D-08,  8.0D-01, r^2= 9.6D+00
   Bfn.  Coefficient  Atom+Function         Bfn.  Coefficient  Atom+Function  
  ----- ------------  ---------------      ----- ------------  ---------------
    49      9.446595  2 N  s                 48     -3.149320  2 N  s          
     6     -2.309831  1 C  s                 76     -2.008609  2 N  dzz        
    71     -1.866693  2 N  dxx               74     -1.866693  2 N  dyy        
     5      1.665648  1 C  s                 46     -0.702242  2 N  s          
    65     -0.478528  2 N  dxx               68     -0.478528  2 N  dyy        

 Vector   12  Occ=0.000000D+00  E= 2.281840D-01
              MO Center=  9.2D-10, -1.5D-08, -7.1D-01, r^2= 7.5D+00
   Bfn.  Coefficient  Atom+Function         Bfn.  Coefficient  Atom+Function  
  ----- ------------  ---------------      ----- ------------  ---------------
    48      4.764452  2 N  s                  5     -3.741579  1 C  s          
    49     -3.159720  2 N  s                 15     -2.759355  1 C  pz         
    33     -1.701566  1 C  dzz                4      1.337963  1 C  s          
    71      1.315353  2 N  dxx               74      1.315353  2 N  dyy        
    28      1.249074  1 C  dxx               31      1.249074  1 C  dyy        

 Vector   13  Occ=0.000000D+00  E= 2.389855D-01
              MO Center= -2.2D-08,  1.3D-08,  2.2D-01, r^2= 5.7D+00
   Bfn.  Coefficient  Atom+Function         Bfn.  Coefficient  Atom+Function  
  ----- ------------  ---------------      ----- ------------  ---------------
    14      2.239140  1 C  py                57     -1.544907  2 N  py         
    32      1.383855  1 C  dyz               75      1.326539  2 N  dyz        
    13     -1.190792  1 C  px                56      0.821593  2 N  px         
    30     -0.735945  1 C  dxz               73     -0.705464  2 N  dxz        
    11     -0.334046  1 C  py                54      0.194800  2 N  py         

 Vector   14  Occ=0.000000D+00  E= 2.389855D-01
              MO Center=  5.9D-09, -3.8D-09,  2.2D-01, r^2= 5.7D+00
   Bfn.  Coefficient  Atom+Function         Bfn.  Coefficient  Atom+Function  
  ----- ------------  ---------------      ----- ------------  ---------------
    13      2.239140  1 C  px                56     -1.544907  2 N  px         
    30      1.383855  1 C  dxz               73      1.326539  2 N  dxz        
    14      1.190792  1 C  py                57     -0.821593  2 N  py         
    32      0.735945  1 C  dyz               75      0.705464  2 N  dyz        
    10     -0.334046  1 C  px                53      0.194800  2 N  px         

 Vector   15  Occ=0.000000D+00  E= 2.604694D-01
              MO Center= -5.8D-09, -2.8D-08, -1.5D+00, r^2= 9.0D+00
   Bfn.  Coefficient  Atom+Function         Bfn.  Coefficient  Atom+Function  
  ----- ------------  ---------------      ----- ------------  ---------------
     6     10.834335  1 C  s                 33     -4.412144  1 C  dzz        
    49     -4.107174  2 N  s                 28     -3.592149  1 C  dxx        
    31     -3.592149  1 C  dyy               58      1.799357  2 N  pz         
     4      1.537117  1 C  s                 71      1.142991  2 N  dxx        
    74      1.142991  2 N  dyy                3     -1.112007  1 C  s          

 Vector   16  Occ=0.000000D+00  E= 2.641470D-01
              MO Center=  8.3D-09,  1.1D-08, -7.1D-01, r^2= 5.5D+00
   Bfn.  Coefficient  Atom+Function         Bfn.  Coefficient  Atom+Function  
  ----- ------------  ---------------      ----- ------------  ---------------
    28      0.942162  1 C  dxx               31     -0.942163  1 C  dyy        
    71     -0.091870  2 N  dxx               74      0.091870  2 N  dyy        
    22     -0.042670  1 C  dxx               25      0.042670  1 C  dyy        
    65      0.033324  2 N  dxx               68     -0.033324  2 N  dyy        
    16      0.028322  1 C  dxx               19     -0.028322  1 C  dyy        

 Vector   17  Occ=0.000000D+00  E= 2.641470D-01
              MO Center=  1.0D-08,  1.1D-08, -7.1D-01, r^2= 5.5D+00
   Bfn.  Coefficient  Atom+Function         Bfn.  Coefficient  Atom+Function  
  ----- ------------  ---------------      ----- ------------  ---------------
    29      1.884325  1 C  dxy               72     -0.183739  2 N  dxy        
    23     -0.085339  1 C  dxy               66      0.066648  2 N  dxy        
    17      0.056643  1 C  dxy        

 Vector   18  Occ=0.000000D+00  E= 2.997794D-01
              MO Center=  1.1D-09, -7.5D-09, -1.4D+00, r^2= 5.1D+00
   Bfn.  Coefficient  Atom+Function         Bfn.  Coefficient  Atom+Function  
  ----- ------------  ---------------      ----- ------------  ---------------
    32      2.673083  1 C  dyz               57     -1.588136  2 N  py         
    11      0.736429  1 C  py                14      0.562940  1 C  py         
    75      0.455676  2 N  dyz               51     -0.200651  2 N  py         
     8      0.191186  1 C  py                42     -0.151536  1 C  fyzz       
    26     -0.142224  1 C  dyz               54      0.129480  2 N  py         

 Vector   19  Occ=0.000000D+00  E= 2.997794D-01
              MO Center= -4.5D-09,  4.9D-10, -1.4D+00, r^2= 5.1D+00
   Bfn.  Coefficient  Atom+Function         Bfn.  Coefficient  Atom+Function  
  ----- ------------  ---------------      ----- ------------  ---------------
    30      2.673083  1 C  dxz               56     -1.588136  2 N  px         
    10      0.736429  1 C  px                13      0.562940  1 C  px         
    73      0.455676  2 N  dxz               50     -0.200651  2 N  px         
     7      0.191186  1 C  px                39     -0.151536  1 C  fxzz       
    24     -0.142224  1 C  dxz               53      0.129480  2 N  px         

 Vector   20  Occ=0.000000D+00  E= 3.457234D-01
              MO Center=  1.7D-09,  5.3D-09,  7.0D-02, r^2= 8.2D+00
   Bfn.  Coefficient  Atom+Function         Bfn.  Coefficient  Atom+Function  
  ----- ------------  ---------------      ----- ------------  ---------------
    48    -28.366198  2 N  s                  5     27.709139  1 C  s          
    15     14.976569  1 C  pz                58      8.472789  2 N  pz         
    76     -4.481086  2 N  dzz               33      3.638944  1 C  dzz        
    28     -2.677455  1 C  dxx               31     -2.677455  1 C  dyy        
    71     -2.357137  2 N  dxx               74     -2.357137  2 N  dyy        

 Vector   21  Occ=0.000000D+00  E= 4.152419D-01
              MO Center=  8.3D-09,  1.4D-08,  7.3D-01, r^2= 7.4D+00
   Bfn.  Coefficient  Atom+Function         Bfn.  Coefficient  Atom+Function  
  ----- ------------  ---------------      ----- ------------  ---------------
    49     12.376668  2 N  s                  5      5.028209  1 C  s          
    76     -4.746021  2 N  dzz               48     -4.290249  2 N  s          
    71     -3.625871  2 N  dxx               74     -3.625871  2 N  dyy        
     6     -3.034900  1 C  s                 58      1.610533  2 N  pz         
    46     -1.127954  2 N  s                 65     -1.026056  2 N  dxx        

 Vector   22  Occ=0.000000D+00  E= 4.819771D-01
              MO Center= -1.5D-09, -2.7D-09,  3.8D-01, r^2= 5.0D+00
   Bfn.  Coefficient  Atom+Function         Bfn.  Coefficient  Atom+Function  
  ----- ------------  ---------------      ----- ------------  ---------------
    71      1.296799  2 N  dxx               74     -1.296800  2 N  dyy        
    28     -0.900679  1 C  dxx               31      0.900679  1 C  dyy        
    65     -0.053561  2 N  dxx               68      0.053561  2 N  dyy        
    59      0.027846  2 N  dxx               62     -0.027846  2 N  dyy        

 Vector   23  Occ=0.000000D+00  E= 4.819772D-01
              MO Center= -9.4D-10, -1.4D-09,  3.8D-01, r^2= 5.0D+00
   Bfn.  Coefficient  Atom+Function         Bfn.  Coefficient  Atom+Function  
  ----- ------------  ---------------      ----- ------------  ---------------
    72      2.593599  2 N  dxy               29     -1.801359  1 C  dxy        
    66     -0.107123  2 N  dxy               60      0.055693  2 N  dxy        
    38      0.046955  1 C  fxyz              23      0.045333  1 C  dxy        

 Vector   24  Occ=0.000000D+00  E= 4.863434D-01
              MO Center=  2.7D-09,  8.0D-10,  8.7D-01, r^2= 4.3D+00
   Bfn.  Coefficient  Atom+Function         Bfn.  Coefficient  Atom+Function  
  ----- ------------  ---------------      ----- ------------  ---------------
    75      1.687267  2 N  dyz               73     -1.483216  2 N  dxz        
    11      0.818956  1 C  py                10     -0.719915  1 C  px         
    32     -0.703246  1 C  dyz               30      0.618199  1 C  dxz        
    54     -0.295103  2 N  py                53      0.259415  2 N  px         
    57      0.254217  2 N  py                56     -0.223473  2 N  px         

 Vector   25  Occ=0.000000D+00  E= 4.863434D-01
              MO Center= -5.4D-09, -4.4D-09,  8.7D-01, r^2= 4.3D+00
   Bfn.  Coefficient  Atom+Function         Bfn.  Coefficient  Atom+Function  
  ----- ------------  ---------------      ----- ------------  ---------------
    73      1.687267  2 N  dxz               75      1.483216  2 N  dyz        
    10      0.818956  1 C  px                11      0.719915  1 C  py         
    30     -0.703246  1 C  dxz               32     -0.618199  1 C  dyz        
    53     -0.295103  2 N  px                54     -0.259415  2 N  py         
    56      0.254217  2 N  px                57      0.223473  2 N  py         

 Vector   26  Occ=0.000000D+00  E= 5.575424D-01
              MO Center=  2.7D-09,  3.7D-09,  3.9D-02, r^2= 5.6D+00
   Bfn.  Coefficient  Atom+Function         Bfn.  Coefficient  Atom+Function  
  ----- ------------  ---------------      ----- ------------  ---------------
     5     19.728529  1 C  s                 48    -18.123422  2 N  s          
    15     13.177860  1 C  pz                49      5.095582  2 N  s          
    71     -4.828505  2 N  dxx               74     -4.828505  2 N  dyy        
    33      4.549550  1 C  dzz                4     -1.831069  1 C  s          
    12     -1.648952  1 C  pz                76     -1.628303  2 N  dzz        

 Vector   27  Occ=0.000000D+00  E= 6.527485D-01
              MO Center=  4.3D-09,  6.7D-09, -1.0D+00, r^2= 6.7D+00
   Bfn.  Coefficient  Atom+Function         Bfn.  Coefficient  Atom+Function  
  ----- ------------  ---------------      ----- ------------  ---------------
     6      9.667629  1 C  s                 48      6.845533  2 N  s          
    33     -6.487346  1 C  dzz               15     -5.175780  1 C  pz         
    28     -4.606281  1 C  dxx               31     -4.606281  1 C  dyy        
     3     -2.990606  1 C  s                 49     -2.708452  2 N  s          
    27     -2.237588  1 C  dzz               71      2.154196  2 N  dxx        

 Vector   28  Occ=0.000000D+00  E= 7.426956D-01
              MO Center=  1.6D-08, -3.3D-08,  3.7D-01, r^2= 4.1D+00
   Bfn.  Coefficient  Atom+Function         Bfn.  Coefficient  Atom+Function  
  ----- ------------  ---------------      ----- ------------  ---------------
    57      4.611229  2 N  py                14     -3.097153  1 C  py         
    75     -2.471544  2 N  dyz               32     -2.340998  1 C  dyz        
    56     -2.140949  2 N  px                13      1.437978  1 C  px         
    54     -1.345288  2 N  py                73      1.147514  2 N  dxz        
    30      1.086903  1 C  dxz               53      0.624604  2 N  px         

 Vector   29  Occ=0.000000D+00  E= 7.426956D-01
              MO Center= -4.4D-08, -2.0D-08,  3.7D-01, r^2= 4.1D+00
   Bfn.  Coefficient  Atom+Function         Bfn.  Coefficient  Atom+Function  
  ----- ------------  ---------------      ----- ------------  ---------------
    56      4.611229  2 N  px                13     -3.097153  1 C  px         
    73     -2.471544  2 N  dxz               30     -2.340998  1 C  dxz        
    57      2.140949  2 N  py                14     -1.437978  1 C  py         
    53     -1.345288  2 N  px                75     -1.147514  2 N  dyz        
    32     -1.086903  1 C  dyz               54     -0.624604  2 N  py         

 Vector   30  Occ=0.000000D+00  E= 7.570728D-01
              MO Center=  2.6D-08,  3.8D-08,  5.0D-01, r^2= 3.9D+00
   Bfn.  Coefficient  Atom+Function         Bfn.  Coefficient  Atom+Function  
  ----- ------------  ---------------      ----- ------------  ---------------
     5     26.544055  1 C  s                 48    -26.101342  2 N  s          
    58     13.105969  2 N  pz                15      9.927677  1 C  pz         
     4      4.895423  1 C  s                 76     -4.842002  2 N  dzz        
    12      4.203157  1 C  pz                28     -2.905803  1 C  dxx        
    31     -2.905803  1 C  dyy                6      2.616973  1 C  s          

 Vector   31  Occ=0.000000D+00  E= 8.174121D-01
              MO Center= -4.2D-09,  1.1D-09, -3.3D-01, r^2= 4.4D+00
   Bfn.  Coefficient  Atom+Function         Bfn.  Coefficient  Atom+Function  
  ----- ------------  ---------------      ----- ------------  ---------------
     5     28.774202  1 C  s                 48    -26.939329  2 N  s          
    15     16.093574  1 C  pz                58      7.545952  2 N  pz         
    49     -3.492551  2 N  s                  4      3.405525  1 C  s          
     6      3.030248  1 C  s                 28     -2.702724  1 C  dxx        
    31     -2.702724  1 C  dyy               47     -2.385891  2 N  s          

 Vector   32  Occ=0.000000D+00  E= 8.980994D-01
              MO Center= -3.7D-10, -3.5D-10, -4.8D-01, r^2= 2.3D+00
   Bfn.  Coefficient  Atom+Function         Bfn.  Coefficient  Atom+Function  
  ----- ------------  ---------------      ----- ------------  ---------------
    23      1.958367  1 C  dxy               29     -0.716881  1 C  dxy        
    72     -0.483824  2 N  dxy               66      0.235337  2 N  dxy        

 Vector   33  Occ=0.000000D+00  E= 8.980994D-01
              MO Center= -6.2D-10, -6.0D-10, -4.8D-01, r^2= 2.3D+00
   Bfn.  Coefficient  Atom+Function         Bfn.  Coefficient  Atom+Function  
  ----- ------------  ---------------      ----- ------------  ---------------
    22      0.979183  1 C  dxx               25     -0.979183  1 C  dyy        
    28     -0.358441  1 C  dxx               31      0.358441  1 C  dyy        
    71     -0.241912  2 N  dxx               74      0.241912  2 N  dyy        
    65      0.117668  2 N  dxx               68     -0.117668  2 N  dyy        

 Vector   34  Occ=0.000000D+00  E= 9.985548D-01
              MO Center=  1.3D-09,  2.1D-09, -9.1D-01, r^2= 2.2D+00
   Bfn.  Coefficient  Atom+Function         Bfn.  Coefficient  Atom+Function  
  ----- ------------  ---------------      ----- ------------  ---------------
    26      2.016551  1 C  dyz               24      1.189252  1 C  dxz        
    54     -0.702043  2 N  py                75      0.699349  2 N  dyz        
    32     -0.648502  1 C  dyz               14      0.598387  1 C  py         
    11     -0.498377  1 C  py                53     -0.414027  2 N  px         
    73      0.412438  2 N  dxz               30     -0.382451  1 C  dxz        

 Vector   35  Occ=0.000000D+00  E= 9.985548D-01
              MO Center=  7.8D-10,  1.7D-10, -9.1D-01, r^2= 2.2D+00
   Bfn.  Coefficient  Atom+Function         Bfn.  Coefficient  Atom+Function  
  ----- ------------  ---------------      ----- ------------  ---------------
    24      2.016551  1 C  dxz               26     -1.189252  1 C  dyz        
    53     -0.702043  2 N  px                73      0.699349  2 N  dxz        
    30     -0.648502  1 C  dxz               13      0.598387  1 C  px         
    10     -0.498377  1 C  px                54      0.414027  2 N  py         
    75     -0.412438  2 N  dyz               32      0.382451  1 C  dyz        

 Vector   36  Occ=0.000000D+00  E= 1.038633D+00
              MO Center= -8.2D-10,  3.3D-10,  1.1D+00, r^2= 4.3D+00
   Bfn.  Coefficient  Atom+Function         Bfn.  Coefficient  Atom+Function  
  ----- ------------  ---------------      ----- ------------  ---------------
     5     14.129043  1 C  s                 49     11.946543  2 N  s          
    71     -6.813116  2 N  dxx               74     -6.813116  2 N  dyy        
    76     -6.834441  2 N  dzz               15      6.430439  1 C  pz         
    48     -5.147752  2 N  s                 58      4.076394  2 N  pz         
    46     -3.196904  2 N  s                  6     -2.944351  1 C  s          

 Vector   37  Occ=0.000000D+00  E= 1.269120D+00
              MO Center=  1.2D-09,  1.3D-09, -7.2D-01, r^2= 2.3D+00
   Bfn.  Coefficient  Atom+Function         Bfn.  Coefficient  Atom+Function  
  ----- ------------  ---------------      ----- ------------  ---------------
     5     10.688047  1 C  s                 48     -9.806481  2 N  s          
     4     -7.430115  1 C  s                 47      5.819798  2 N  s          
    58      4.639044  2 N  pz                55     -4.545492  2 N  pz         
    12     -3.417368  1 C  pz                15      3.397746  1 C  pz         
    27     -2.487808  1 C  dzz               76     -2.414381  2 N  dzz        

 Vector   38  Occ=0.000000D+00  E= 1.308493D+00
              MO Center=  2.3D-09,  2.4D-09, -1.7D-01, r^2= 2.5D+00
   Bfn.  Coefficient  Atom+Function         Bfn.  Coefficient  Atom+Function  
  ----- ------------  ---------------      ----- ------------  ---------------
    10      2.562197  1 C  px                11      2.574734  1 C  py         
    73      1.306053  2 N  dxz               75      1.312444  2 N  dyz        
    56     -1.031844  2 N  px                57     -1.036893  2 N  py         
    24      0.996291  1 C  dxz               26      1.001166  1 C  dyz        
     7     -0.763803  1 C  px                 8     -0.767540  1 C  py         

 Vector   39  Occ=0.000000D+00  E= 1.308493D+00
              MO Center= -1.6D-10, -8.9D-11, -1.7D-01, r^2= 2.5D+00
   Bfn.  Coefficient  Atom+Function         Bfn.  Coefficient  Atom+Function  
  ----- ------------  ---------------      ----- ------------  ---------------
    10      2.574734  1 C  px                11     -2.562197  1 C  py         
    73      1.312444  2 N  dxz               75     -1.306053  2 N  dyz        
    56     -1.036893  2 N  px                57      1.031844  2 N  py         
    24      1.001166  1 C  dxz               26     -0.996291  1 C  dyz        
     7     -0.767540  1 C  px                 8      0.763803  1 C  py         

 Vector   40  Occ=0.000000D+00  E= 1.456285D+00
              MO Center= -2.6D-10, -3.0D-10,  3.9D-01, r^2= 1.8D+00
   Bfn.  Coefficient  Atom+Function         Bfn.  Coefficient  Atom+Function  
  ----- ------------  ---------------      ----- ------------  ---------------
    66      2.078954  2 N  dxy               72     -1.291400  2 N  dxy        
    23     -0.824474  1 C  dxy               29      0.827658  1 C  dxy        
    38      0.189219  1 C  fxyz              81     -0.029408  2 N  fxyz       

 Vector   41  Occ=0.000000D+00  E= 1.456285D+00
              MO Center= -2.2D-10, -3.3D-10,  3.9D-01, r^2= 1.8D+00
   Bfn.  Coefficient  Atom+Function         Bfn.  Coefficient  Atom+Function  
  ----- ------------  ---------------      ----- ------------  ---------------
    65      1.039477  2 N  dxx               68     -1.039477  2 N  dyy        
    71     -0.645700  2 N  dxx               74      0.645700  2 N  dyy        
    22     -0.412237  1 C  dxx               25      0.412237  1 C  dyy        
    28      0.413829  1 C  dxx               31     -0.413829  1 C  dyy        
    36      0.094609  1 C  fxxz              41     -0.094609  1 C  fyyz       

 Vector   42  Occ=0.000000D+00  E= 1.492998D+00
              MO Center= -3.6D-09, -3.7D-09, -6.6D-01, r^2= 4.0D+00
   Bfn.  Coefficient  Atom+Function         Bfn.  Coefficient  Atom+Function  
  ----- ------------  ---------------      ----- ------------  ---------------
     3      6.701805  1 C  s                 27      6.700553  1 C  dzz        
     6     -6.125202  1 C  s                 48     -5.946121  2 N  s          
    22      5.750744  1 C  dxx               25      5.750744  1 C  dyy        
     4     -5.115651  1 C  s                  5     -4.338696  1 C  s          
    33      4.317892  1 C  dzz               28      3.610718  1 C  dxx        

 Vector   43  Occ=0.000000D+00  E= 1.624107D+00
              MO Center=  4.9D-10, -1.7D-10,  4.7D-01, r^2= 2.0D+00
   Bfn.  Coefficient  Atom+Function         Bfn.  Coefficient  Atom+Function  
  ----- ------------  ---------------      ----- ------------  ---------------
    69     -2.177836  2 N  dyz               67      1.995333  2 N  dxz        
    26     -1.958828  1 C  dyz               24      1.794678  1 C  dxz        
    57      1.651649  2 N  py                56     -1.513241  2 N  px         
    11     -1.358384  1 C  py                10      1.244552  1 C  px         
    14     -0.773973  1 C  py                13      0.709114  1 C  px         

 Vector   44  Occ=0.000000D+00  E= 1.624107D+00
              MO Center=  5.9D-11,  1.1D-10,  4.7D-01, r^2= 2.0D+00
   Bfn.  Coefficient  Atom+Function         Bfn.  Coefficient  Atom+Function  
  ----- ------------  ---------------      ----- ------------  ---------------
    67      2.177836  2 N  dxz               69      1.995333  2 N  dyz        
    24      1.958828  1 C  dxz               26      1.794678  1 C  dyz        
    56     -1.651649  2 N  px                57     -1.513241  2 N  py         
    10      1.358384  1 C  px                11      1.244552  1 C  py         
    13      0.773973  1 C  px                14      0.709114  1 C  py         

 Vector   45  Occ=0.000000D+00  E= 1.663253D+00
              MO Center=  4.0D-10,  1.1D-09, -3.5D-01, r^2= 3.5D+00
   Bfn.  Coefficient  Atom+Function         Bfn.  Coefficient  Atom+Function  
  ----- ------------  ---------------      ----- ------------  ---------------
    48    -25.422915  2 N  s                  5     24.017714  1 C  s          
     4     18.207357  1 C  s                 12     13.979037  1 C  pz         
    58     13.926132  2 N  pz                47     -8.931634  2 N  s          
    15      6.717513  1 C  pz                55      5.789131  2 N  pz         
     6      3.896796  1 C  s                 28     -3.214948  1 C  dxx        

 Vector   46  Occ=0.000000D+00  E= 1.938956D+00
              MO Center=  3.1D-09,  1.8D-09,  3.4D-01, r^2= 2.2D+00
   Bfn.  Coefficient  Atom+Function         Bfn.  Coefficient  Atom+Function  
  ----- ------------  ---------------      ----- ------------  ---------------
     5     18.791580  1 C  s                 48    -18.266924  2 N  s          
    15     10.518751  1 C  pz                58      5.095521  2 N  pz         
     4      4.450867  1 C  s                 12     -3.279923  1 C  pz         
    27     -2.830343  1 C  dzz               65      2.556726  2 N  dxx        
    68      2.556726  2 N  dyy                3     -2.526537  1 C  s          

 Vector   47  Occ=0.000000D+00  E= 2.059104D+00
              MO Center=  7.0D-12,  1.9D-09,  2.5D-01, r^2= 2.0D+00
   Bfn.  Coefficient  Atom+Function         Bfn.  Coefficient  Atom+Function  
  ----- ------------  ---------------      ----- ------------  ---------------
    54      4.413012  2 N  py                57     -3.160174  2 N  py         
    14      1.815412  1 C  py                32      1.618369  1 C  dyz        
    26     -1.447783  1 C  dyz               69     -1.298910  2 N  dyz        
    51     -1.204008  2 N  py                75      1.089463  2 N  dyz        
    78     -1.007445  2 N  fxxy              83     -1.007445  2 N  fyyy       

 Vector   48  Occ=0.000000D+00  E= 2.059104D+00
              MO Center=  1.8D-09,  2.9D-10,  2.5D-01, r^2= 2.0D+00
   Bfn.  Coefficient  Atom+Function         Bfn.  Coefficient  Atom+Function  
  ----- ------------  ---------------      ----- ------------  ---------------
    53      4.413012  2 N  px                56     -3.160174  2 N  px         
    13      1.815412  1 C  px                30      1.618369  1 C  dxz        
    24     -1.447783  1 C  dxz               67     -1.298910  2 N  dxz        
    50     -1.204008  2 N  px                73      1.089463  2 N  dxz        
    77     -1.007445  2 N  fxxx              80     -1.007445  2 N  fxyy       

 Vector   49  Occ=0.000000D+00  E= 2.315781D+00
              MO Center= -4.7D-09, -3.8D-09,  1.0D+00, r^2= 2.4D+00
   Bfn.  Coefficient  Atom+Function         Bfn.  Coefficient  Atom+Function  
  ----- ------------  ---------------      ----- ------------  ---------------
     5     10.470529  1 C  s                 47      8.912867  2 N  s          
    49      8.551906  2 N  s                 46     -7.183638  2 N  s          
    70     -6.517760  2 N  dzz               65     -5.961421  2 N  dxx        
    68     -5.961421  2 N  dyy               76     -5.801796  2 N  dzz        
    71     -5.583953  2 N  dxx               74     -5.583953  2 N  dyy        

 Vector   50  Occ=0.000000D+00  E= 2.705937D+00
              MO Center=  1.6D-10,  1.6D-10, -6.0D-01, r^2= 8.5D-01
   Bfn.  Coefficient  Atom+Function         Bfn.  Coefficient  Atom+Function  
  ----- ------------  ---------------      ----- ------------  ---------------
    35      1.647084  1 C  fxxy              37      1.647026  1 C  fxyy       
    34     -0.549008  1 C  fxxx              40     -0.549028  1 C  fyyy       
    78      0.187859  2 N  fxxy              80      0.187852  2 N  fxyy       
    77     -0.062617  2 N  fxxx              83     -0.062620  2 N  fyyy       

 Vector   51  Occ=0.000000D+00  E= 2.705937D+00
              MO Center=  1.4D-10,  1.4D-10, -6.0D-01, r^2= 8.5D-01
   Bfn.  Coefficient  Atom+Function         Bfn.  Coefficient  Atom+Function  
  ----- ------------  ---------------      ----- ------------  ---------------
    35      1.647026  1 C  fxxy              37     -1.647084  1 C  fxyy       
    34      0.549028  1 C  fxxx              40     -0.549008  1 C  fyyy       
    78      0.187852  2 N  fxxy              80     -0.187859  2 N  fxyy       
    77      0.062620  2 N  fxxx              83     -0.062617  2 N  fyyy       

 Vector   52  Occ=0.000000D+00  E= 2.768260D+00
              MO Center= -6.4D-10, -6.6D-10, -5.6D-01, r^2= 1.6D+00
   Bfn.  Coefficient  Atom+Function         Bfn.  Coefficient  Atom+Function  
  ----- ------------  ---------------      ----- ------------  ---------------
     4     26.341506  1 C  s                 55      9.162157  2 N  pz         
     3     -8.273846  1 C  s                 47     -6.967782  2 N  s          
     5     -6.556573  1 C  s                 22     -6.275613  1 C  dxx        
    25     -6.275613  1 C  dyy               12      5.625200  1 C  pz         
    48      4.703584  2 N  s                 70     -3.546976  2 N  dzz        

 Vector   53  Occ=0.000000D+00  E= 2.820974D+00
              MO Center= -1.2D-10, -1.2D-10, -3.8D-01, r^2= 1.0D+00
   Bfn.  Coefficient  Atom+Function         Bfn.  Coefficient  Atom+Function  
  ----- ------------  ---------------      ----- ------------  ---------------
    38      3.668164  1 C  fxyz              81     -0.758153  2 N  fxyz       
    66     -0.754305  2 N  dxy               17      0.338977  1 C  dxy        
    72      0.163152  2 N  dxy               23     -0.053355  1 C  dxy        
    60      0.047679  2 N  dxy               29      0.031229  1 C  dxy        

 Vector   54  Occ=0.000000D+00  E= 2.820974D+00
              MO Center= -3.6D-11, -3.7D-11, -3.8D-01, r^2= 1.0D+00
   Bfn.  Coefficient  Atom+Function         Bfn.  Coefficient  Atom+Function  
  ----- ------------  ---------------      ----- ------------  ---------------
    36      1.834082  1 C  fxxz              41     -1.834082  1 C  fyyz       
    79     -0.379077  2 N  fxxz              84      0.379077  2 N  fyyz       
    65     -0.377152  2 N  dxx               68      0.377152  2 N  dyy        
    16      0.169489  1 C  dxx               19     -0.169489  1 C  dyy        
    71      0.081576  2 N  dxx               74     -0.081576  2 N  dyy        

 Vector   55  Occ=0.000000D+00  E= 2.991000D+00
              MO Center= -7.6D-10, -8.2D-10, -7.0D-01, r^2= 1.1D+00
   Bfn.  Coefficient  Atom+Function         Bfn.  Coefficient  Atom+Function  
  ----- ------------  ---------------      ----- ------------  ---------------
    39     -1.181081  1 C  fxzz              42      1.184066  1 C  fyzz       
    24     -1.161998  1 C  dxz               26      1.164935  1 C  dyz        
    18      1.107223  1 C  dxz               20     -1.110022  1 C  dyz        
    10      0.689548  1 C  px                11     -0.691290  1 C  py         
    85     -0.595533  2 N  fyzz              34     -0.591137  1 C  fxxx       

 Vector   56  Occ=0.000000D+00  E= 2.991000D+00
              MO Center= -6.1D-09, -6.1D-09, -7.0D-01, r^2= 1.1D+00
   Bfn.  Coefficient  Atom+Function         Bfn.  Coefficient  Atom+Function  
  ----- ------------  ---------------      ----- ------------  ---------------
    39     -1.184066  1 C  fxzz              42     -1.181081  1 C  fyzz       
    24     -1.164935  1 C  dxz               26     -1.161998  1 C  dyz        
    18      1.110022  1 C  dxz               20      1.107223  1 C  dyz        
    10      0.691290  1 C  px                11      0.689548  1 C  py         
    34     -0.592631  1 C  fxxx              82      0.595533  2 N  fxzz       

 Vector   57  Occ=0.000000D+00  E= 3.109361D+00
              MO Center= -3.7D-11, -3.1D-11, -6.7D-01, r^2= 8.4D-01
   Bfn.  Coefficient  Atom+Function         Bfn.  Coefficient  Atom+Function  
  ----- ------------  ---------------      ----- ------------  ---------------
    17      2.053402  1 C  dxy               23     -1.471516  1 C  dxy        
    38     -0.976097  1 C  fxyz              29      0.418974  1 C  dxy        
    81     -0.300672  2 N  fxyz              66      0.235468  2 N  dxy        
    60      0.035982  2 N  dxy               72      0.027149  2 N  dxy        

 Vector   58  Occ=0.000000D+00  E= 3.109361D+00
              MO Center=  4.8D-10,  4.9D-10, -6.7D-01, r^2= 8.4D-01
   Bfn.  Coefficient  Atom+Function         Bfn.  Coefficient  Atom+Function  
  ----- ------------  ---------------      ----- ------------  ---------------
    16      1.026701  1 C  dxx               19     -1.026701  1 C  dyy        
    22     -0.735758  1 C  dxx               25      0.735758  1 C  dyy        
    36     -0.488049  1 C  fxxz              41      0.488049  1 C  fyyz       
    28      0.209487  1 C  dxx               31     -0.209487  1 C  dyy        
    79     -0.150336  2 N  fxxz              84      0.150336  2 N  fyyz       

 Vector   59  Occ=0.000000D+00  E= 3.224746D+00
              MO Center=  5.7D-08,  5.7D-08, -3.7D-01, r^2= 1.3D+00
   Bfn.  Coefficient  Atom+Function         Bfn.  Coefficient  Atom+Function  
  ----- ------------  ---------------      ----- ------------  ---------------
    10      2.078428  1 C  px                11      2.080946  1 C  py         
    39     -1.385018  1 C  fxzz              42     -1.386696  1 C  fyzz       
    34     -1.366639  1 C  fxxx              35     -1.368295  1 C  fxxy       
    37     -1.366639  1 C  fxyy              40     -1.368295  1 C  fyyy       
    56     -0.857146  2 N  px                57     -0.858184  2 N  py         

 Vector   60  Occ=0.000000D+00  E= 3.224746D+00
              MO Center=  6.8D-10,  8.4D-10, -3.7D-01, r^2= 1.3D+00
   Bfn.  Coefficient  Atom+Function         Bfn.  Coefficient  Atom+Function  
  ----- ------------  ---------------      ----- ------------  ---------------
    10      2.080946  1 C  px                11     -2.078428  1 C  py         
    39     -1.386696  1 C  fxzz              42      1.385018  1 C  fyzz       
    34     -1.368295  1 C  fxxx              35      1.366639  1 C  fxxy       
    37     -1.368295  1 C  fxyy              40      1.366639  1 C  fyyy       
    56     -0.858184  2 N  px                57      0.857146  2 N  py         

 Vector   61  Occ=0.000000D+00  E= 3.266729D+00
              MO Center= -4.4D-08, -4.5D-08, -3.1D-01, r^2= 2.0D+00
   Bfn.  Coefficient  Atom+Function         Bfn.  Coefficient  Atom+Function  
  ----- ------------  ---------------      ----- ------------  ---------------
     4     24.344586  1 C  s                  3    -19.236235  1 C  s          
    27    -12.384775  1 C  dzz               22     -9.719339  1 C  dxx        
    25     -9.719339  1 C  dyy               12     -6.571472  1 C  pz         
    55     -6.578299  2 N  pz                 5      4.209843  1 C  s          
    70      3.348140  2 N  dzz               48      2.888240  2 N  s          

 Vector   62  Occ=0.000000D+00  E= 3.314861D+00
              MO Center= -5.2D-09, -5.2D-09, -6.9D-01, r^2= 1.8D+00
   Bfn.  Coefficient  Atom+Function         Bfn.  Coefficient  Atom+Function  
  ----- ------------  ---------------      ----- ------------  ---------------
     4     32.149277  1 C  s                  3    -12.554766  1 C  s          
    12      8.181827  1 C  pz                22     -7.535587  1 C  dxx        
    25     -7.535587  1 C  dyy               55      6.883374  2 N  pz         
    27     -5.452214  1 C  dzz               70     -4.077657  2 N  dzz        
    48     -3.820884  2 N  s                 46     -2.978579  2 N  s          

 Vector   63  Occ=0.000000D+00  E= 3.410942D+00
              MO Center=  8.6D-11,  8.7D-11, -4.8D-01, r^2= 1.3D+00
   Bfn.  Coefficient  Atom+Function         Bfn.  Coefficient  Atom+Function  
  ----- ------------  ---------------      ----- ------------  ---------------
    39      2.229953  1 C  fxzz              42     -2.229843  1 C  fyzz       
    24      1.899669  1 C  dxz               26     -1.899575  1 C  dyz        
    67      1.774355  2 N  dxz               69     -1.774267  2 N  dyz        
    10      1.418364  1 C  px                11     -1.418294  1 C  py         
    53     -1.256747  2 N  px                54      1.256684  2 N  py         

 Vector   64  Occ=0.000000D+00  E= 3.410942D+00
              MO Center=  1.3D-09,  1.3D-09, -4.8D-01, r^2= 1.3D+00
   Bfn.  Coefficient  Atom+Function         Bfn.  Coefficient  Atom+Function  
  ----- ------------  ---------------      ----- ------------  ---------------
    39      2.229843  1 C  fxzz              42      2.229953  1 C  fyzz       
    24      1.899575  1 C  dxz               26      1.899669  1 C  dyz        
    67      1.774267  2 N  dxz               69      1.774355  2 N  dyz        
    10      1.418294  1 C  px                11      1.418364  1 C  py         
    53     -1.256684  2 N  px                54     -1.256747  2 N  py         

 Vector   65  Occ=0.000000D+00  E= 3.716556D+00
              MO Center=  7.2D-10,  7.7D-10, -4.5D-01, r^2= 1.7D+00
   Bfn.  Coefficient  Atom+Function         Bfn.  Coefficient  Atom+Function  
  ----- ------------  ---------------      ----- ------------  ---------------
    48     14.460465  2 N  s                  5    -13.122804  1 C  s          
    47     12.422253  2 N  s                 12    -10.201992  1 C  pz         
    58     -8.052175  2 N  pz                 4     -5.786696  1 C  s          
    36      4.043044  1 C  fxxz              41      4.043044  1 C  fyyz       
    27     -3.611468  1 C  dzz               46     -3.428330  2 N  s          

 Vector   66  Occ=0.000000D+00  E= 4.019554D+00
              MO Center=  2.1D-10,  2.1D-10,  5.1D-01, r^2= 6.4D-01
   Bfn.  Coefficient  Atom+Function         Bfn.  Coefficient  Atom+Function  
  ----- ------------  ---------------      ----- ------------  ---------------
    78      1.675865  2 N  fxxy              80     -1.675567  2 N  fxyy       
    77      0.558522  2 N  fxxx              83     -0.558621  2 N  fyyy       
    35     -0.361313  1 C  fxxy              37      0.361249  1 C  fxyy       
    34     -0.120416  1 C  fxxx              40      0.120438  1 C  fyyy       

 Vector   67  Occ=0.000000D+00  E= 4.019554D+00
              MO Center=  2.1D-10,  2.1D-10,  5.1D-01, r^2= 6.4D-01
   Bfn.  Coefficient  Atom+Function         Bfn.  Coefficient  Atom+Function  
  ----- ------------  ---------------      ----- ------------  ---------------
    78      1.675567  2 N  fxxy              80      1.675865  2 N  fxyy       
    77     -0.558621  2 N  fxxx              83     -0.558522  2 N  fyyy       
    35     -0.361249  1 C  fxxy              37     -0.361313  1 C  fxyy       
    34      0.120438  1 C  fxxx              40      0.120416  1 C  fyyy       

 Vector   68  Occ=0.000000D+00  E= 4.176285D+00
              MO Center= -2.9D-10, -3.1D-10,  5.3D-02, r^2= 1.3D+00
   Bfn.  Coefficient  Atom+Function         Bfn.  Coefficient  Atom+Function  
  ----- ------------  ---------------      ----- ------------  ---------------
     4     27.301929  1 C  s                 47    -15.256353  2 N  s          
     3    -10.693722  1 C  s                 48     -9.019288  2 N  s          
     5      7.804729  1 C  s                 22     -6.358343  1 C  dxx        
    25     -6.358343  1 C  dyy               15      5.386126  1 C  pz         
    46      5.190906  2 N  s                 27     -4.148163  1 C  dzz        

 Vector   69  Occ=0.000000D+00  E= 4.522319D+00
              MO Center=  7.8D-11,  7.8D-11,  3.1D-01, r^2= 8.0D-01
   Bfn.  Coefficient  Atom+Function         Bfn.  Coefficient  Atom+Function  
  ----- ------------  ---------------      ----- ------------  ---------------
    79      1.963101  2 N  fxxz              84     -1.963101  2 N  fyyz       
    36      1.125889  1 C  fxxz              41     -1.125889  1 C  fyyz       
    59     -0.365140  2 N  dxx               62      0.365140  2 N  dyy        
    16      0.172784  1 C  dxx               19     -0.172784  1 C  dyy        
    22      0.122309  1 C  dxx               25     -0.122309  1 C  dyy        

 Vector   70  Occ=0.000000D+00  E= 4.522319D+00
              MO Center=  8.1D-11,  8.1D-11,  3.1D-01, r^2= 8.0D-01
   Bfn.  Coefficient  Atom+Function         Bfn.  Coefficient  Atom+Function  
  ----- ------------  ---------------      ----- ------------  ---------------
    81      3.926201  2 N  fxyz              38      2.251779  1 C  fxyz       
    60     -0.730280  2 N  dxy               17      0.345569  1 C  dxy        
    23      0.244618  1 C  dxy               72     -0.209168  2 N  dxy        
    29      0.062405  1 C  dxy        

 Vector   71  Occ=0.000000D+00  E= 4.685824D+00
              MO Center= -1.8D-09, -1.8D-09,  6.2D-01, r^2= 9.4D-01
   Bfn.  Coefficient  Atom+Function         Bfn.  Coefficient  Atom+Function  
  ----- ------------  ---------------      ----- ------------  ---------------
    54     -2.419735  2 N  py                53      2.358741  2 N  px         
    85      1.633897  2 N  fyzz              82     -1.592712  2 N  fxzz       
    57      1.509227  2 N  py                56     -1.471184  2 N  px         
    78      1.408152  2 N  fxxy              83      1.408152  2 N  fyyy       
    77     -1.372657  2 N  fxxx              80     -1.372657  2 N  fxyy       

 Vector   72  Occ=0.000000D+00  E= 4.685824D+00
              MO Center=  2.4D-09,  2.2D-09,  6.2D-01, r^2= 9.4D-01
   Bfn.  Coefficient  Atom+Function         Bfn.  Coefficient  Atom+Function  
  ----- ------------  ---------------      ----- ------------  ---------------
    53      2.419735  2 N  px                54      2.358741  2 N  py         
    82     -1.633897  2 N  fxzz              85     -1.592712  2 N  fyzz       
    56     -1.509227  2 N  px                57     -1.471184  2 N  py         
    77     -1.408152  2 N  fxxx              80     -1.408152  2 N  fxyy       
    78     -1.372657  2 N  fxxy              83     -1.372657  2 N  fyyy       

 Vector   73  Occ=0.000000D+00  E= 4.755043D+00
              MO Center=  2.6D-09,  2.6D-09,  5.8D-01, r^2= 6.2D-01
   Bfn.  Coefficient  Atom+Function         Bfn.  Coefficient  Atom+Function  
  ----- ------------  ---------------      ----- ------------  ---------------
    60      1.966506  2 N  dxy               81      1.634145  2 N  fxyz       
    66     -1.553496  2 N  dxy               38      0.987813  1 C  fxyz       
    72      0.556902  2 N  dxy               23      0.370274  1 C  dxy        
    29     -0.303465  1 C  dxy               17      0.067443  1 C  dxy        

 Vector   74  Occ=0.000000D+00  E= 4.755043D+00
              MO Center=  2.0D-09,  2.0D-09,  5.8D-01, r^2= 6.2D-01
   Bfn.  Coefficient  Atom+Function         Bfn.  Coefficient  Atom+Function  
  ----- ------------  ---------------      ----- ------------  ---------------
    59      0.983253  2 N  dxx               62     -0.983253  2 N  dyy        
    79      0.817073  2 N  fxxz              84     -0.817073  2 N  fyyz       
    65     -0.776748  2 N  dxx               68      0.776748  2 N  dyy        
    36      0.493907  1 C  fxxz              41     -0.493907  1 C  fyyz       
    71      0.278451  2 N  dxx               74     -0.278451  2 N  dyy        

 Vector   75  Occ=0.000000D+00  E= 4.975242D+00
              MO Center=  4.3D-08,  4.3D-08,  3.0D-01, r^2= 1.3D+00
   Bfn.  Coefficient  Atom+Function         Bfn.  Coefficient  Atom+Function  
  ----- ------------  ---------------      ----- ------------  ---------------
    47     37.296668  2 N  s                 46    -22.973712  2 N  s          
    70    -13.335694  2 N  dzz               65    -12.207383  2 N  dxx        
    68    -12.207383  2 N  dyy                4     11.727705  1 C  s          
    48      4.473696  2 N  s                 55      3.861349  2 N  pz         
    49      3.436519  2 N  s                  3     -3.278609  1 C  s          

 Vector   76  Occ=0.000000D+00  E= 4.996496D+00
              MO Center= -4.7D-08, -4.8D-08,  4.9D-01, r^2= 7.6D-01
   Bfn.  Coefficient  Atom+Function         Bfn.  Coefficient  Atom+Function  
  ----- ------------  ---------------      ----- ------------  ---------------
    54      1.938106  2 N  py                53      1.909596  2 N  px         
    69     -1.413279  2 N  dyz               67     -1.392489  2 N  dxz        
    63      1.232078  2 N  dyz               61      1.213954  2 N  dxz        
    78     -1.166358  2 N  fxxy              83     -1.166358  2 N  fyyy       
    77     -1.149200  2 N  fxxx              80     -1.149200  2 N  fxyy       

 Vector   77  Occ=0.000000D+00  E= 4.996496D+00
              MO Center= -8.3D-10,  9.0D-10,  4.9D-01, r^2= 7.6D-01
   Bfn.  Coefficient  Atom+Function         Bfn.  Coefficient  Atom+Function  
  ----- ------------  ---------------      ----- ------------  ---------------
    53      1.938106  2 N  px                54     -1.909596  2 N  py         
    67     -1.413279  2 N  dxz               69      1.392489  2 N  dyz        
    61      1.232078  2 N  dxz               63     -1.213954  2 N  dyz        
    77     -1.166358  2 N  fxxx              80     -1.166358  2 N  fxyy       
    78      1.149200  2 N  fxxy              83      1.149200  2 N  fyyy       

 Vector   78  Occ=0.000000D+00  E= 5.084816D+00
              MO Center=  7.4D-10,  7.4D-10,  7.0D-01, r^2= 1.2D+00
   Bfn.  Coefficient  Atom+Function         Bfn.  Coefficient  Atom+Function  
  ----- ------------  ---------------      ----- ------------  ---------------
    47     17.421854  2 N  s                  5     13.631905  1 C  s          
     4    -12.977332  1 C  s                 48     -8.155868  2 N  s          
    46     -7.571596  2 N  s                 55     -7.483907  2 N  pz         
    15      6.180572  1 C  pz                58      4.832895  2 N  pz         
    65     -4.279580  2 N  dxx               68     -4.279580  2 N  dyy        

 Vector   79  Occ=0.000000D+00  E= 5.644547D+00
              MO Center=  1.9D-10,  1.9D-10,  1.4D-01, r^2= 1.0D+00
   Bfn.  Coefficient  Atom+Function         Bfn.  Coefficient  Atom+Function  
  ----- ------------  ---------------      ----- ------------  ---------------
    82     -2.499678  2 N  fxzz              85     -2.498723  2 N  fyzz       
    39      2.316571  1 C  fxzz              42      2.315686  1 C  fyzz       
    67      1.643246  2 N  dxz               69      1.642617  2 N  dyz        
    18      1.259824  1 C  dxz               20      1.259342  1 C  dyz        
    24      1.189415  1 C  dxz               26      1.188960  1 C  dyz        

 Vector   80  Occ=0.000000D+00  E= 5.644547D+00
              MO Center=  5.8D-12,  7.2D-12,  1.4D-01, r^2= 1.0D+00
   Bfn.  Coefficient  Atom+Function         Bfn.  Coefficient  Atom+Function  
  ----- ------------  ---------------      ----- ------------  ---------------
    82     -2.498723  2 N  fxzz              85      2.499678  2 N  fyzz       
    39      2.315686  1 C  fxzz              42     -2.316571  1 C  fyzz       
    67      1.642617  2 N  dxz               69     -1.643246  2 N  dyz        
    18      1.259342  1 C  dxz               20     -1.259824  1 C  dyz        
    24      1.188960  1 C  dxz               26     -1.189415  1 C  dyz        

 Vector   81  Occ=0.000000D+00  E= 6.228695D+00
              MO Center=  2.3D-10,  2.3D-10,  3.1D-01, r^2= 1.2D+00
   Bfn.  Coefficient  Atom+Function         Bfn.  Coefficient  Atom+Function  
  ----- ------------  ---------------      ----- ------------  ---------------
     4     15.136768  1 C  s                 55     13.079962  2 N  pz         
    70     -7.064382  2 N  dzz               12      6.822710  1 C  pz         
    79     -4.139667  2 N  fxxz              84     -4.139667  2 N  fyyz       
    47     -3.541351  2 N  s                  5     -2.661058  1 C  s          
    48     -2.277142  2 N  s                 46     -2.092764  2 N  s          

 Vector   82  Occ=0.000000D+00  E= 6.668527D+00
              MO Center=  6.3D-11,  7.0D-11, -2.1D-02, r^2= 1.1D+00
   Bfn.  Coefficient  Atom+Function         Bfn.  Coefficient  Atom+Function  
  ----- ------------  ---------------      ----- ------------  ---------------
    47     21.752495  2 N  s                  4    -17.192748  1 C  s          
    46     -9.533704  2 N  s                  3      6.940280  1 C  s          
    65     -5.378639  2 N  dxx               68     -5.378639  2 N  dyy        
    22      4.919803  1 C  dxx               25      4.919803  1 C  dyy        
     5     -4.854520  1 C  s                 27      4.211427  1 C  dzz        

 Vector   83  Occ=0.000000D+00  E= 8.063868D+00
              MO Center=  9.6D-11,  9.6D-11, -6.7D-01, r^2= 7.8D-01
   Bfn.  Coefficient  Atom+Function         Bfn.  Coefficient  Atom+Function  
  ----- ------------  ---------------      ----- ------------  ---------------
     4     22.887595  1 C  s                 27     -7.314611  1 C  dzz        
    22     -7.112229  1 C  dxx               25     -7.112229  1 C  dyy        
     3     -6.109390  1 C  s                 47      5.403324  2 N  s          
    21     -3.749673  1 C  dzz               16     -3.100242  1 C  dxx        
    19     -3.100242  1 C  dyy               46     -2.149965  2 N  s          

 Vector   84  Occ=0.000000D+00  E= 1.205108D+01
              MO Center=  1.0D-10,  1.0D-10,  5.5D-01, r^2= 5.0D-01
   Bfn.  Coefficient  Atom+Function         Bfn.  Coefficient  Atom+Function  
  ----- ------------  ---------------      ----- ------------  ---------------
    47     22.109194  2 N  s                 70     -7.406293  2 N  dzz        
    65     -7.168522  2 N  dxx               68     -7.168522  2 N  dyy        
    46     -5.281143  2 N  s                 59     -3.324052  2 N  dxx        
    62     -3.324052  2 N  dyy               64     -3.288987  2 N  dzz        
    49      2.290426  2 N  s                 45     -1.762654  2 N  s          

 Vector   85  Occ=0.000000D+00  E= 3.464532D+01
              MO Center=  1.7D-12,  1.7D-12, -6.3D-01, r^2= 1.6D-01
   Bfn.  Coefficient  Atom+Function         Bfn.  Coefficient  Atom+Function  
  ----- ------------  ---------------      ----- ------------  ---------------
     3      5.238900  1 C  s                  2     -3.823847  1 C  s          
     4      2.867791  1 C  s                 21     -2.670645  1 C  dzz        
    16     -2.589658  1 C  dxx               19     -2.589658  1 C  dyy        
    27     -1.708635  1 C  dzz                1      1.663866  1 C  s          
    22     -1.659183  1 C  dxx               25     -1.659183  1 C  dyy        

 Vector   86  Occ=0.000000D+00  E= 5.163107D+01
              MO Center= -9.5D-13, -9.2D-13,  5.4D-01, r^2= 1.1D-01
   Bfn.  Coefficient  Atom+Function         Bfn.  Coefficient  Atom+Function  
  ----- ------------  ---------------      ----- ------------  ---------------
    46      7.515005  2 N  s                 45     -4.041580  2 N  s          
    59     -2.697866  2 N  dxx               62     -2.697866  2 N  dyy        
    64     -2.690624  2 N  dzz               44      1.691759  2 N  s          
    48      1.385756  2 N  s                 49      1.172927  2 N  s          
    70     -0.998319  2 N  dzz               65     -0.892783  2 N  dxx        


                     DFT Final Beta Molecular Orbital Analysis
                     -----------------------------------------

 Vector    1  Occ=1.000000D+00  E=-1.424955D+01
              MO Center= -2.6D-10, -2.6D-10,  5.4D-01, r^2= 2.0D-02
   Bfn.  Coefficient  Atom+Function         Bfn.  Coefficient  Atom+Function  
  ----- ------------  ---------------      ----- ------------  ---------------
    45      0.619507  2 N  s                 44      0.449411  2 N  s          
    47     -0.110821  2 N  s                 46      0.099332  2 N  s          

 Vector    2  Occ=1.000000D+00  E=-1.019905D+01
              MO Center= -2.1D-10, -2.1D-10, -6.3D-01, r^2= 2.8D-02
   Bfn.  Coefficient  Atom+Function         Bfn.  Coefficient  Atom+Function  
  ----- ------------  ---------------      ----- ------------  ---------------
     2      0.599875  1 C  s                  1      0.468172  1 C  s          
     4     -0.112330  1 C  s                  3      0.103058  1 C  s          

 Vector    3  Occ=1.000000D+00  E=-1.061019D+00
              MO Center=  4.1D-09,  4.1D-09,  9.4D-02, r^2= 5.4D-01
   Bfn.  Coefficient  Atom+Function         Bfn.  Coefficient  Atom+Function  
  ----- ------------  ---------------      ----- ------------  ---------------
    46      0.323153  2 N  s                  3      0.251363  1 C  s          
    47      0.230987  2 N  s                 45     -0.192400  2 N  s          
     9      0.172497  1 C  pz                 4      0.160675  1 C  s          
    52     -0.145693  2 N  pz                 2     -0.142290  1 C  s          
    12      0.093158  1 C  pz                44     -0.088301  2 N  s          

 Vector    4  Occ=1.000000D+00  E=-5.433284D-01
              MO Center=  7.1D-09,  7.1D-09,  4.6D-01, r^2= 1.1D+00
   Bfn.  Coefficient  Atom+Function         Bfn.  Coefficient  Atom+Function  
  ----- ------------  ---------------      ----- ------------  ---------------
    47      0.369728  2 N  s                  4     -0.313469  1 C  s          
    52      0.295467  2 N  pz                 3     -0.273469  1 C  s          
    46      0.234284  2 N  s                 48      0.224756  2 N  s          
    55      0.179467  2 N  pz                 2      0.145085  1 C  s          
    45     -0.142006  2 N  s                 49      0.094112  2 N  s          

 Vector    5  Occ=1.000000D+00  E=-4.990277D-01
              MO Center= -3.8D-10, -3.7D-10,  8.3D-02, r^2= 1.0D+00
   Bfn.  Coefficient  Atom+Function         Bfn.  Coefficient  Atom+Function  
  ----- ------------  ---------------      ----- ------------  ---------------
    50      0.252412  2 N  px                51     -0.252584  2 N  py         
    53      0.206930  2 N  px                54     -0.207070  2 N  py         
     7      0.203574  1 C  px                 8     -0.203712  1 C  py         
    10      0.156719  1 C  px                11     -0.156826  1 C  py         
    56      0.105629  2 N  px                57     -0.105701  2 N  py         

 Vector    6  Occ=1.000000D+00  E=-4.990277D-01
              MO Center= -6.5D-09, -6.5D-09,  8.3D-02, r^2= 1.0D+00
   Bfn.  Coefficient  Atom+Function         Bfn.  Coefficient  Atom+Function  
  ----- ------------  ---------------      ----- ------------  ---------------
    50      0.252584  2 N  px                51      0.252412  2 N  py         
    53      0.207070  2 N  px                54      0.206930  2 N  py         
     7      0.203712  1 C  px                 8      0.203574  1 C  py         
    10      0.156826  1 C  px                11      0.156719  1 C  py         
    56      0.105701  2 N  px                57      0.105629  2 N  py         

 Vector    7  Occ=0.000000D+00  E=-1.463424D-01
              MO Center= -5.2D-10, -4.6D-10, -7.3D-01, r^2= 1.6D+00
   Bfn.  Coefficient  Atom+Function         Bfn.  Coefficient  Atom+Function  
  ----- ------------  ---------------      ----- ------------  ---------------
     6      0.341118  1 C  s                  9     -0.341074  1 C  pz         
    12     -0.290181  1 C  pz                52      0.252569  2 N  pz         
     4      0.213803  1 C  s                 15     -0.176895  1 C  pz         
    48      0.122879  2 N  s                  5      0.116858  1 C  s          
    55      0.113046  2 N  pz                47      0.112081  2 N  s          

 Vector    8  Occ=0.000000D+00  E= 6.815835D-02
              MO Center= -3.9D-09,  4.0D-09, -1.5D+00, r^2= 1.1D+01
   Bfn.  Coefficient  Atom+Function         Bfn.  Coefficient  Atom+Function  
  ----- ------------  ---------------      ----- ------------  ---------------
     6      7.774898  1 C  s                 49     -2.518252  2 N  s          
    28     -1.798701  1 C  dxx               31     -1.798701  1 C  dyy        
    33     -1.731896  1 C  dzz                5     -0.813073  1 C  s          
     3     -0.704349  1 C  s                 58      0.534763  2 N  pz         
    15      0.491712  1 C  pz                22     -0.493355  1 C  dxx        

 Vector    9  Occ=0.000000D+00  E= 9.943479D-02
              MO Center= -2.3D-08, -2.2D-08, -4.1D-01, r^2= 2.3D+00
   Bfn.  Coefficient  Atom+Function         Bfn.  Coefficient  Atom+Function  
  ----- ------------  ---------------      ----- ------------  ---------------
    13      0.312714  1 C  px                30     -0.312258  1 C  dxz        
    14      0.302758  1 C  py                32     -0.302317  1 C  dyz        
     7      0.237126  1 C  px                 8      0.229577  1 C  py         
    53     -0.216543  2 N  px                50     -0.213028  2 N  px         
    54     -0.209649  2 N  py                51     -0.206246  2 N  py         

 Vector   10  Occ=0.000000D+00  E= 9.943479D-02
              MO Center=  1.2D-09, -1.5D-09, -4.1D-01, r^2= 2.3D+00
   Bfn.  Coefficient  Atom+Function         Bfn.  Coefficient  Atom+Function  
  ----- ------------  ---------------      ----- ------------  ---------------
    14     -0.312714  1 C  py                32      0.312258  1 C  dyz        
    13      0.302758  1 C  px                30     -0.302317  1 C  dxz        
     8     -0.237126  1 C  py                 7      0.229577  1 C  px         
    54      0.216543  2 N  py                51      0.213028  2 N  py         
    53     -0.209649  2 N  px                50     -0.206246  2 N  px         

 Vector   11  Occ=0.000000D+00  E= 1.222562D-01
              MO Center=  1.9D-08,  2.2D-08,  8.3D-01, r^2= 9.7D+00
   Bfn.  Coefficient  Atom+Function         Bfn.  Coefficient  Atom+Function  
  ----- ------------  ---------------      ----- ------------  ---------------
    49      9.614208  2 N  s                 48     -3.266488  2 N  s          
     6     -2.437090  1 C  s                 76     -2.047883  2 N  dzz        
    71     -1.912227  2 N  dxx               74     -1.912227  2 N  dyy        
     5      1.770262  1 C  s                 46     -0.710136  2 N  s          
    65     -0.487745  2 N  dxx               68     -0.487745  2 N  dyy        

 Vector   12  Occ=0.000000D+00  E= 2.352893D-01
              MO Center=  5.6D-09,  4.8D-10, -7.4D-01, r^2= 7.5D+00
   Bfn.  Coefficient  Atom+Function         Bfn.  Coefficient  Atom+Function  
  ----- ------------  ---------------      ----- ------------  ---------------
    48      4.671063  2 N  s                  5     -3.703614  1 C  s          
    15     -2.808558  1 C  pz                49     -2.775318  2 N  s          
    33     -1.647836  1 C  dzz                4      1.405268  1 C  s          
    28      1.340179  1 C  dxx               31      1.340179  1 C  dyy        
    71      1.244187  2 N  dxx               74      1.244187  2 N  dyy        

 Vector   13  Occ=0.000000D+00  E= 2.425546D-01
              MO Center= -1.7D-09, -5.9D-09,  3.4D-01, r^2= 5.7D+00
   Bfn.  Coefficient  Atom+Function         Bfn.  Coefficient  Atom+Function  
  ----- ------------  ---------------      ----- ------------  ---------------
    13      2.237698  1 C  px                56     -1.624300  2 N  px         
    30      1.558206  1 C  dxz               73      1.364741  2 N  dxz        
    14     -1.232940  1 C  py                57      0.894967  2 N  py         
    32     -0.858550  1 C  dyz               75     -0.751953  2 N  dyz        
    10     -0.293562  1 C  px                53      0.208103  2 N  px         

 Vector   14  Occ=0.000000D+00  E= 2.425546D-01
              MO Center= -1.7D-08, -1.5D-08,  3.4D-01, r^2= 5.7D+00
   Bfn.  Coefficient  Atom+Function         Bfn.  Coefficient  Atom+Function  
  ----- ------------  ---------------      ----- ------------  ---------------
    14      2.237698  1 C  py                57     -1.624300  2 N  py         
    32      1.558206  1 C  dyz               75      1.364741  2 N  dyz        
    13      1.232940  1 C  px                56     -0.894967  2 N  px         
    30      0.858550  1 C  dxz               73      0.751953  2 N  dxz        
    11     -0.293562  1 C  py                54      0.208103  2 N  py         

 Vector   15  Occ=0.000000D+00  E= 2.671164D-01
              MO Center=  5.2D-09,  1.6D-10, -7.0D-01, r^2= 5.5D+00
   Bfn.  Coefficient  Atom+Function         Bfn.  Coefficient  Atom+Function  
  ----- ------------  ---------------      ----- ------------  ---------------
    28      0.940588  1 C  dxx               31     -0.940589  1 C  dyy        
[...]
        Alpha frozen cores :       0
         Beta frozen cores :       0
     Alpha frozen virtuals :       0
      Beta frozen virtuals :       0
         Spin multiplicity :       2
    Number of AO functions :      86
        Use of symmetry is : off
      Symmetry adaption is : off
         Schwarz screening :  0.10D-07

              XC Information
              --------------
              Hartree-Fock (Exact) Exchange   1.00          
              LC-wPBE(h)Exchange Functional   1.00          
     Perdew 1991 LDA Correlation Functional   1.00 local    
    PerdewBurkeErnz. Correlation Functional   1.00 non-local
           Alpha           :  0.00
           Beta            :  1.00
           Gamma           :  0.37

             TDDFT Information
             -----------------
          Calculation type : Tamm-Dancoff TDDFT
         Wavefunction type : Unrestricted
          No. of electrons :      13
           Alpha electrons :       7
            Beta electrons :       6
              No. of roots :      10
          Max subspacesize :    6000
            Max iterations :     100
               Target root :       1
           Target symmetry : none
      Symmetry restriction : off
                 Algorithm : Optimal
        Davidson threshold :  0.10D-03

            Memory Information
            ------------------
          Available GA space size is       52428785208 doubles
          Available MA space size is        4194406396 doubles
          Length of a trial vector is          553     480
          Algorithm : Incore multiple tensor contraction
          Estimated peak GA usage is          21015426 doubles
          Estimated peak MA usage is             51000 doubles

   10 smallest eigenvalue differences (eV) 
--------------------------------------------------------
  No. Spin  Occ  Vir  Irrep   E(Occ)    E(Vir)   E(Diff)
--------------------------------------------------------
    1    2    6    7 a        -0.499    -0.146     9.597
    2    2    5    7 a        -0.499    -0.146     9.597
    3    2    4    7 a        -0.543    -0.146    10.803
    4    2    6    8 a        -0.499     0.068    15.434
    5    2    5    8 a        -0.499     0.068    15.434
    6    1    7    8 a        -0.508     0.060    15.475
    7    1    6    8 a        -0.508     0.060    15.475
    8    1    7    9 a        -0.508     0.073    15.830
    9    1    7   10 a        -0.508     0.073    15.830
   10    1    6    9 a        -0.508     0.073    15.830
--------------------------------------------------------

  Entering Davidson iterations
  Unrestricted

  Iter   NTrls   NConv    DeltaV     DeltaE      Time   
  ----  ------  ------  ---------  ---------  --------- 
    1     10       0     0.39E+00   0.10+100       12.7
    2     20       0     0.12E+00   0.13E+00       13.9
    3     30       0     0.17E+00   0.87E-01       13.8
    4     40       0     0.98E-01   0.31E-01       13.9
    5     50       0     0.17E+00   0.34E-01       13.9
    6     60       3     0.68E-01   0.17E-01       13.8
    7     67       5     0.14E-01   0.19E-02       10.8
    8     72       5     0.63E-01   0.57E-02        9.0
    9     77       6     0.12E-01   0.14E-02        9.0
   10     81       8     0.29E-02   0.57E-04        7.9
   11     83       9     0.62E-03   0.28E-05        6.0
   12     84       9     0.16E-03   0.12E-06        5.0
   13     85      10     0.76E-04   0.76E-08        5.0
  ----  ------  ------  ---------  ---------  --------- 
  Convergence criterion met

  Ground state a         -92.660404346515 a.u.
  <S2> =   0.7673

  ----------------------------------------------------------------------------
  Root   1         a              0.054200165 a.u.                1.4749 eV 
  <S2> =   0.7762
  ----------------------------------------------------------------------------
     Transition Moments    X  0.24760   Y -0.19954   Z -0.00000
     Transition Moments   XX  0.00000  XY  0.00000  XZ -0.24025
     Transition Moments   YY  0.00000  YZ  0.19362  ZZ  0.00000
     Dipole Oscillator Strength                    0.0036539026
     Electric Quadrupole                           0.0000000001
     Magnetic Dipole                               0.0000000213
     Total Oscillator Strength                     0.0036539240

     Occ.    4 alpha a   ---  Virt.   10 alpha a       -0.06389
     Occ.    5 beta  a   ---  Virt.    7 beta  a       -0.98604
     Occ.    5 beta  a   ---  Virt.    8 beta  a        0.08109
     Occ.    6 beta  a   ---  Virt.    7 beta  a       -0.10632
  ----------------------------------------------------------------------------
  Root   2         a              0.054200165 a.u.                1.4749 eV 
  <S2> =   0.7762
  ----------------------------------------------------------------------------
     Transition Moments    X  0.19954   Y  0.24760   Z -0.00000
     Transition Moments   XX  0.00000  XY  0.00000  XZ -0.19361
     Transition Moments   YY  0.00000  YZ -0.24025  ZZ  0.00000
     Dipole Oscillator Strength                    0.0036538591
     Electric Quadrupole                           0.0000000001
     Magnetic Dipole                               0.0000000213
     Total Oscillator Strength                     0.0036538804

     Occ.    4 alpha a   ---  Virt.    9 alpha a       -0.06389
     Occ.    5 beta  a   ---  Virt.    7 beta  a        0.10632
     Occ.    6 beta  a   ---  Virt.    7 beta  a       -0.98604
     Occ.    6 beta  a   ---  Virt.    8 beta  a        0.08109
  ----------------------------------------------------------------------------
  Root   3         a              0.130125611 a.u.                3.5409 eV 
  <S2> =   0.8297
  ----------------------------------------------------------------------------
     Transition Moments    X -0.00000   Y -0.00000   Z -0.61453
     Transition Moments   XX  0.03045  XY  0.00000  XZ  0.00000
     Transition Moments   YY  0.03045  YZ  0.00000  ZZ  0.14994
     Dipole Oscillator Strength                    0.0327610587
     Electric Quadrupole                           0.0000000001
     Magnetic Dipole                               0.0000000000
     Total Oscillator Strength                     0.0327610588

     Occ.    6 alpha a   ---  Virt.    9 alpha a       -0.20084
     Occ.    7 alpha a   ---  Virt.   10 alpha a       -0.20084
     Occ.    4 beta  a   ---  Virt.    7 beta  a        0.94792
     Occ.    4 beta  a   ---  Virt.    8 beta  a       -0.06684
  ----------------------------------------------------------------------------
  Root   4         a              0.238325401 a.u.                6.4852 eV 
  <S2> =   2.6874
  ----------------------------------------------------------------------------
     Transition Moments    X  0.00001   Y  0.00001   Z  0.14395
     Transition Moments   XX  0.02623  XY -0.00000  XZ -0.00000
     Transition Moments   YY  0.02624  YZ -0.00000  ZZ -0.12350
     Dipole Oscillator Strength                    0.0032923545
     Electric Quadrupole                           0.0000000005
     Magnetic Dipole                               0.0000000000
     Total Oscillator Strength                     0.0032923550

     Occ.    6 alpha a   ---  Virt.    9 alpha a       -0.46278
     Occ.    6 alpha a   ---  Virt.   18 alpha a        0.05996
     Occ.    6 alpha a   ---  Virt.   19 alpha a        0.06609
     Occ.    7 alpha a   ---  Virt.   10 alpha a       -0.46278
     Occ.    7 alpha a   ---  Virt.   18 alpha a       -0.06609
     Occ.    7 alpha a   ---  Virt.   19 alpha a        0.05996
     Occ.    4 beta  a   ---  Virt.    7 beta  a       -0.16376
     Occ.    5 beta  a   ---  Virt.   10 beta  a       -0.49637
     Occ.    5 beta  a   ---  Virt.   18 beta  a       -0.10871
     Occ.    6 beta  a   ---  Virt.    9 beta  a       -0.49637
     Occ.    6 beta  a   ---  Virt.   19 beta  a       -0.10871
  ----------------------------------------------------------------------------
  Root   5         a              0.256106845 a.u.                6.9690 eV 
  <S2> =   2.6957
  ----------------------------------------------------------------------------
     Transition Moments    X  0.00000   Y  0.00000   Z -0.00000
     Transition Moments   XX  0.02581  XY -0.00000  XZ -0.00000
     Transition Moments   YY -0.02581  YZ -0.00000  ZZ  0.00000
     Dipole Oscillator Strength                    0.0000000000
     Electric Quadrupole                           0.0000000001
     Magnetic Dipole                               0.0000000000
     Total Oscillator Strength                     0.0000000001

     Occ.    6 alpha a   ---  Virt.   10 alpha a        0.56182
     Occ.    6 alpha a   ---  Virt.   18 alpha a        0.07089
     Occ.    6 alpha a   ---  Virt.   19 alpha a       -0.06450
     Occ.    7 alpha a   ---  Virt.    9 alpha a        0.56182
     Occ.    7 alpha a   ---  Virt.   18 alpha a       -0.06450
     Occ.    7 alpha a   ---  Virt.   19 alpha a       -0.07089
     Occ.    5 beta  a   ---  Virt.    9 beta  a        0.40470
     Occ.    5 beta  a   ---  Virt.   19 beta  a        0.08410
     Occ.    6 beta  a   ---  Virt.   10 beta  a        0.40470
     Occ.    6 beta  a   ---  Virt.   18 beta  a        0.08410
  ----------------------------------------------------------------------------
  Root   6         a              0.256107607 a.u.                6.9690 eV 
  <S2> =   2.6957
  ----------------------------------------------------------------------------
     Transition Moments    X  0.00000   Y  0.00000   Z -0.00000
     Transition Moments   XX -0.00000  XY  0.02580  XZ  0.00000
     Transition Moments   YY  0.00000  YZ  0.00000  ZZ -0.00000
     Dipole Oscillator Strength                    0.0000000000
     Electric Quadrupole                           0.0000000001
     Magnetic Dipole                               0.0000000000
     Total Oscillator Strength                     0.0000000001

     Occ.    6 alpha a   ---  Virt.    9 alpha a        0.56182
     Occ.    6 alpha a   ---  Virt.   18 alpha a       -0.06450
     Occ.    6 alpha a   ---  Virt.   19 alpha a       -0.07089
     Occ.    7 alpha a   ---  Virt.   10 alpha a       -0.56182
     Occ.    7 alpha a   ---  Virt.   18 alpha a       -0.07089
     Occ.    7 alpha a   ---  Virt.   19 alpha a        0.06450
     Occ.    5 beta  a   ---  Virt.   10 beta  a       -0.40469
     Occ.    5 beta  a   ---  Virt.   18 beta  a       -0.08410
     Occ.    6 beta  a   ---  Virt.    9 beta  a        0.40469
     Occ.    6 beta  a   ---  Virt.   19 beta  a        0.08410
  ----------------------------------------------------------------------------
  Root   7         a              0.284990733 a.u.                7.7550 eV 
  <S2> =   1.7527
  ----------------------------------------------------------------------------
     Transition Moments    X -0.00000   Y -0.00000   Z  0.00000
     Transition Moments   XX -0.00000  XY  0.00000  XZ  0.00000
     Transition Moments   YY  0.00001  YZ  0.00000  ZZ  0.00000
     Dipole Oscillator Strength                    0.0000000000
     Electric Quadrupole                           0.0000000000
     Magnetic Dipole                               0.0000000000
     Total Oscillator Strength                     0.0000000000

     Occ.    6 alpha a   ---  Virt.   10 alpha a       -0.69921
     Occ.    6 alpha a   ---  Virt.   18 alpha a       -0.07311
     Occ.    6 alpha a   ---  Virt.   19 alpha a        0.06633
     Occ.    7 alpha a   ---  Virt.    9 alpha a        0.69921
     Occ.    7 alpha a   ---  Virt.   18 alpha a       -0.06633
     Occ.    7 alpha a   ---  Virt.   19 alpha a       -0.07311
  ----------------------------------------------------------------------------
  Root   8         a              0.304795998 a.u.                8.2939 eV 
  <S2> =   1.4325
  ----------------------------------------------------------------------------
     Transition Moments    X  0.05172   Y -0.04703   Z  0.00000
     Transition Moments   XX  0.00000  XY  0.00000  XZ -0.78751
     Transition Moments   YY  0.00000  YZ  0.71602  ZZ  0.00000
     Dipole Oscillator Strength                    0.0009930383
     Electric Quadrupole                           0.0000001708
     Magnetic Dipole                               0.0000022511
     Total Oscillator Strength                     0.0009954602

     Occ.    4 alpha a   ---  Virt.   10 alpha a       -0.08164
     Occ.    5 alpha a   ---  Virt.    9 alpha a        0.05894
     Occ.    5 alpha a   ---  Virt.   10 alpha a        0.94433
     Occ.    5 alpha a   ---  Virt.   18 alpha a        0.09778
     Occ.    5 alpha a   ---  Virt.   19 alpha a       -0.09772
     Occ.    4 beta  a   ---  Virt.   10 beta  a        0.25687
     Occ.    4 beta  a   ---  Virt.   18 beta  a        0.05965
  ----------------------------------------------------------------------------
  Root   9         a              0.304795998 a.u.                8.2939 eV 
  <S2> =   1.4325
  ----------------------------------------------------------------------------
     Transition Moments    X  0.04702   Y  0.05171   Z -0.00000
     Transition Moments   XX  0.00003  XY  0.00000  XZ -0.71602
     Transition Moments   YY  0.00003  YZ -0.78750  ZZ  0.00006
     Dipole Oscillator Strength                    0.0009924607
     Electric Quadrupole                           0.0000001708
     Magnetic Dipole                               0.0000022511
     Total Oscillator Strength                     0.0009948826

     Occ.    4 alpha a   ---  Virt.    9 alpha a       -0.08165
     Occ.    5 alpha a   ---  Virt.    9 alpha a        0.94433
     Occ.    5 alpha a   ---  Virt.   10 alpha a       -0.05894
     Occ.    5 alpha a   ---  Virt.   18 alpha a       -0.09772
     Occ.    5 alpha a   ---  Virt.   19 alpha a       -0.09779
     Occ.    4 beta  a   ---  Virt.    9 beta  a        0.25686
     Occ.    4 beta  a   ---  Virt.   19 beta  a        0.05965
  ----------------------------------------------------------------------------
  Root  10         a              0.311979542 a.u.                8.4894 eV 
  <S2> =   0.8092
  ----------------------------------------------------------------------------
     Transition Moments    X  0.00000   Y  0.00000   Z -0.00001
     Transition Moments   XX  0.22535  XY  0.00000  XZ -0.00000
     Transition Moments   YY -0.22537  YZ -0.00000  ZZ  0.00000
     Dipole Oscillator Strength                    0.0000000000
     Electric Quadrupole                           0.0000000082
     Magnetic Dipole                               0.0000000000
     Total Oscillator Strength                     0.0000000082

     Occ.    6 alpha a   ---  Virt.   10 alpha a        0.41363
     Occ.    7 alpha a   ---  Virt.    9 alpha a        0.41363
     Occ.    5 beta  a   ---  Virt.    9 beta  a       -0.56368
     Occ.    5 beta  a   ---  Virt.   19 beta  a       -0.08451
     Occ.    6 beta  a   ---  Virt.   10 beta  a       -0.56368
     Occ.    6 beta  a   ---  Virt.   18 beta  a       -0.08451

              Target root =      1
          Target symmetry = none
      Ground state energy =    -92.660404346515
        Excitation energy =      0.054200164856
     Excited state energy =    -92.606204181659

  stored tddft:energy   -92.606204181658896     

 Task  times  cpu:      123.8s     wall:      143.8s


                                NWChem Input Module
                                -------------------


 Summary of allocated global arrays
-----------------------------------
  No active global arrays


MA_summarize_allocated_blocks: starting scan ...
heap block 'gridpts', handle 98, address 0x12bb7da8:
	type of elements:		double precision
	number of elements:		1048472103
	address of client space:	0x12bb7e00
	index for client space:		11127575
	total number of bytes:		8387776920
MA_summarize_allocated_blocks: scan completed: 1 heap block, 0 stack blocks
MA usage statistics:

	allocation statistics:
					      heap	     stack
					      ----	     -----
	current number of blocks	         1	         0
	maximum number of blocks	        18	        53
	current total bytes		8387776920	         0
	maximum total bytes		8389258448	  22515128
	maximum total K-bytes		   8389259	     22516
	maximum total M-bytes		      8390	        23


                                     CITATION
                                     --------
                Please cite the following reference when publishing
                           results obtained with NWChem:

          E. Apra, E. J. Bylaska, W. A. de Jong, N. Govind, K. Kowalski,
       T. P. Straatsma, M. Valiev, H. J. J. van Dam, Y. Alexeev, J. Anchell,
       V. Anisimov, F. W. Aquino, R. Atta-Fynn, J. Autschbach, N. P. Bauman,
     J. C. Becca, D. E. Bernholdt, K. Bhaskaran-Nair, S. Bogatko, P. Borowski,
         J. Boschen, J. Brabec, A. Bruner, E. Cauet, Y. Chen, G. N. Chuev,
      C. J. Cramer, J. Daily, M. J. O. Deegan, T. H. Dunning Jr., M. Dupuis,
   K. G. Dyall, G. I. Fann, S. A. Fischer, A. Fonari, H. Fruchtl, L. Gagliardi,
      J. Garza, N. Gawande, S. Ghosh, K. Glaesemann, A. W. Gotz, J. Hammond,
       V. Helms, E. D. Hermes, K. Hirao, S. Hirata, M. Jacquelin, L. Jensen,
   B. G. Johnson, H. Jonsson, R. A. Kendall, M. Klemm, R. Kobayashi, V. Konkov,
      S. Krishnamoorthy, M. Krishnan, Z. Lin, R. D. Lins, R. J. Littlefield,
      A. J. Logsdail, K. Lopata, W. Ma, A. V. Marenich, J. Martin del Campo,
   D. Mejia-Rodriguez, J. E. Moore, J. M. Mullin, T. Nakajima, D. R. Nascimento,
    J. A. Nichols, P. J. Nichols, J. Nieplocha, A. Otero-de-la-Roza, B. Palmer,
    A. Panyala, T. Pirojsirikul, B. Peng, R. Peverati, J. Pittner, L. Pollack,
   R. M. Richard, P. Sadayappan, G. C. Schatz, W. A. Shelton, D. W. Silverstein,
   D. M. A. Smith, T. A. Soares, D. Song, M. Swart, H. L. Taylor, G. S. Thomas,
            V. Tipparaju, D. G. Truhlar, K. Tsemekhman, T. Van Voorhis,
      A. Vazquez-Mayagoitia, P. Verma, O. Villa, A. Vishnu, K. D. Vogiatzis,
        D. Wang, J. H. Weare, M. J. Williamson, T. L. Windus, K. Wolinski,
        A. T. Wong, Q. Wu, C. Yang, Q. Yu, M. Zacharias, Z. Zhang, Y. Zhao,
                                and R. J. Harrison
                        "NWChem: Past, present, and future
                         J. Chem. Phys. 152, 184102 (2020)
                               doi:10.1063/5.0004997

                                      AUTHORS
                                      -------
  E. Apra, E. J. Bylaska, N. Govind, K. Kowalski, M. Valiev, D. Mejia-Rodriguez,
       A. Kunitsa, N. P. Bauman, A. Panyala, W. A. de Jong, T. P. Straatsma,
   H. J. J. van Dam, D. Wang, T. L. Windus, J. Hammond, J. Autschbach, A. Woods,
    K. Bhaskaran-Nair, J. Brabec, K. Lopata, S. A. Fischer, S. Krishnamoorthy,
     M. Jacquelin, W. Ma, M. Klemm, O. Villa, Y. Chen, V. Anisimov, F. Aquino,
     S. Hirata, M. T. Hackler, E. Hermes, L. Jensen, J. E. Moore, J. C. Becca,
      V. Konjkov, T. Risthaus, M. Malagoli, A. Marenich, A. Otero-de-la-Roza,
        J. Mullin, P. Nichols, R. Peverati, J. Pittner, Y. Zhao, P.-D. Fan,
        A. Fonari, M. J. Williamson, R. J. Harrison, J. R. Rehr, M. Dupuis,
     D. Silverstein, D. M. A. Smith, J. Nieplocha, V. Tipparaju, M. Krishnan,
     B. E. Van Kuiken, A. Vazquez-Mayagoitia, M. Swart, Q. Wu, T. Van Voorhis,
     A. A. Auer, M. Nooijen, L. D. Crosby, E. Brown, G. Cisneros, G. I. Fann,
   H. Fruchtl, J. Garza, K. Hirao, R. A. Kendall, J. A. Nichols, K. Tsemekhman,
    K. Wolinski, J. Anchell, D. E. Bernholdt, P. Borowski, T. Clark, D. Clerc,
   H. Dachsel, M. J. O. Deegan, K. Dyall, D. Elwood, E. Glendening, M. Gutowski,
   A. C. Hess, J. Jaffe, B. G. Johnson, J. Ju, R. Kobayashi, R. Kutteh, Z. Lin,
   R. Littlefield, X. Long, B. Meng, T. Nakajima, S. Niu, L. Pollack, M. Rosing,
   K. Glaesemann, G. Sandrone, M. Stave, H. Taylor, G. Thomas, J. H. van Lenthe,
                               A. T. Wong, Z. Zhang.

 Total times  cpu:      123.8s     wall:      144.1s
