 argument  1 = /home/aditisingh4812/nw_chem/nwchem-run/nwchem-run/tddft/open/gdd_open/geom-MOL-2/nco.nw
                                         
                                         


             Northwest Computational Chemistry Package (NWChem) 7.2.3
             --------------------------------------------------------


                    Environmental Molecular Sciences Laboratory
                       Pacific Northwest National Laboratory
                                Richland, WA 99352

                              Copyright (c) 1994-2022
                       Pacific Northwest National Laboratory
                            Battelle Memorial Institute

             NWChem is an open-source computational chemistry package
                        distributed under the terms of the
                      Educational Community License (ECL) 2.0
             A copy of the license is included with this distribution
                              in the LICENSE.TXT file

                                  ACKNOWLEDGMENT
                                  --------------

            This software and its documentation were developed at the
            EMSL at Pacific Northwest National Laboratory, a multiprogram
            national laboratory, operated for the U.S. Department of Energy
            by Battelle under Contract Number DE-AC05-76RL01830. Support
            for this work was provided by the Department of Energy Office
            of Biological and Environmental Research, Office of Basic
            Energy Sciences, and the Office of Advanced Scientific Computing.


           Job information
           ---------------

    hostname        = p21
    program         = /home/aditisingh4812/nw_chem/nwchem-7.2.3-release.revision-d690e065-srconly.2024-08-27/nwchem-7.2.3/bin/LINUX64/nwchem
    date            = Fri Apr 18 19:47:35 2025

    compiled        = Mon_Apr_07_18:51:54_2025
    source          = /home/aditisingh4812/nw_chem/nwchem-7.2.3-release.revision-d690e065-srconly.2024-08-27/nwchem-7.2.3
    nwchem branch   = 7.2.3
    nwchem revision = d690e065
    ga revision     = 5.8.0
    use scalapack   = F
    input           = /home/aditisingh4812/nw_chem/nwchem-run/nwchem-run/tddft/open/gdd_open/geom-MOL-2/nco.nw
    prefix          = nco.
    data base       = ./nco.db
    status          = startup
    nproc           =        8
    time left       =     -1s



           Memory information
           ------------------

    heap     = 2621440000 doubles =  20000.0 Mbytes
    stack    = 2621439997 doubles =  20000.0 Mbytes
    global   = 6553600000 doubles =  50000.0 Mbytes (distinct from heap & stack)
    total    = ********** doubles =  90000.0 Mbytes
    verify   = yes
    hardfail = no 


           Directory information
           ---------------------

  0 permanent = .
  0 scratch   = .




                                NWChem Input Module
                                -------------------



 Scaling coordinates for geometry "geometry" by  1.889725989
 (inverse scale =  0.529177249)



                             Geometry "geometry" -> ""
                             -------------------------

 Output coordinates in angstroms (scale by  1.889725989 to convert to a.u.)

  No.       Tag          Charge          X              Y              Z
 ---- ---------------- ---------- -------------- -------------- --------------
    1 N                    7.0000     0.00000000     0.00000000    -1.26678200
    2 C                    6.0000     0.00000000     0.00000000    -0.03853300
    3 O                    8.0000     0.00000000     0.00000000     1.13733400

      Atomic Mass 
      ----------- 

      N                 14.003070
      C                 12.000000
      O                 15.994910


 Effective nuclear repulsion energy (a.u.)      52.0230708966

            Nuclear Dipole moment (a.u.) 
            ----------------------------
        X                 Y               Z
 ---------------- ---------------- ----------------
     0.0000000000     0.0000000000     0.0000000000


            XYZ format geometry
            -------------------
     3
 geometry
 N                     0.00000000     0.00000000    -1.26678200
 C                     0.00000000     0.00000000    -0.03853300
 O                     0.00000000     0.00000000     1.13733400

 ==============================================================================
                                internuclear distances
 ------------------------------------------------------------------------------
       center one      |      center two      | atomic units |  angstroms
 ------------------------------------------------------------------------------
    2 C                |   1 N                |     2.32105  |     1.22825
    3 O                |   2 C                |     2.22207  |     1.17587
 ------------------------------------------------------------------------------
                         number of included internuclear distances:          2
 ==============================================================================



 ==============================================================================
                                 internuclear angles
 ------------------------------------------------------------------------------
        center 1       |       center 2       |       center 3       |  degrees
 ------------------------------------------------------------------------------
    1 N                |   2 C                |   3 O                |   180.00
 ------------------------------------------------------------------------------
                            number of included internuclear angles:          1
 ==============================================================================





 Summary of "ao basis" -> "" (cartesian)
 ------------------------------------------------------------------------------
       Tag                 Description            Shells   Functions and Types
 ---------------- ------------------------------  ------  ---------------------
 *                         def2-TZVPD                 on all atoms 


  pbe96 is a nonlocal functional; adding pw91lda local functional. 

                                 NWChem DFT Module
                                 -----------------


                      Basis "ao basis" -> "ao basis" (cartesian)
                      -----
  N (Nitrogen)
  ------------
            Exponent  Coefficients 
       -------------- ---------------------------------------------------------
  1 S  1.97308006E+04  0.000219
  1 S  2.95789587E+03  0.001696
  1 S  6.73221336E+02  0.008795
  1 S  1.90682495E+02  0.035359
  1 S  6.22954419E+01  0.110958
  1 S  2.26541612E+01  0.249830

  2 S  8.97914774E+00  0.406239
  2 S  3.68630024E+00  0.243382

  3 S  8.46600768E-01  1.000000

  4 S  3.36471338E-01  1.000000

  5 S  1.36476537E-01  1.000000

  6 S  6.84416058E-02  1.000000

  7 P  4.92003805E+01  0.005555
  7 P  1.13467905E+01  0.038052
  7 P  3.42739724E+00  0.149537
  7 P  1.17855251E+00  0.349493

  8 P  4.16422050E-01  1.000000

  9 P  1.42608260E-01  1.000000

 10 D  1.65400000E+00  1.000000

 11 D  4.69000000E-01  1.000000

 12 D  1.28296421E-01  1.000000

 13 F  1.09300000E+00  1.000000

  C (Carbon)
  ----------
            Exponent  Coefficients 
       -------------- ---------------------------------------------------------
  1 S  1.35753497E+04  0.000222
  1 S  2.03523337E+03  0.001723
  1 S  4.63225624E+02  0.008926
  1 S  1.31200196E+02  0.035728
  1 S  4.28530159E+01  0.110763
  1 S  1.55841858E+01  0.242956

  2 S  6.20671385E+00  0.414403
  2 S  2.57648965E+00  0.237450

  3 S  5.76963394E-01  1.000000

  4 S  2.29728314E-01  1.000000

  5 S  9.51644400E-02  1.000000

  6 S  4.84754014E-02  1.000000

  7 P  3.46972322E+01  0.005333
  7 P  7.95826228E+00  0.035864
  7 P  2.37808269E+00  0.142159
  7 P  8.14332082E-01  0.342705

  8 P  2.88875473E-01  1.000000

  9 P  1.00568237E-01  1.000000

 10 D  1.09700000E+00  1.000000

 11 D  3.18000000E-01  1.000000

 12 D  9.09853364E-02  1.000000

 13 F  7.61000000E-01  1.000000

  O (Oxygen)
  ----------
            Exponent  Coefficients 
       -------------- ---------------------------------------------------------
  1 S  2.70323826E+04  0.000217
  1 S  4.05238714E+03  0.001684
  1 S  9.22327227E+02  0.008740
  1 S  2.61240710E+02  0.035240
  1 S  8.53546414E+01  0.111535
  1 S  3.10350352E+01  0.255890

  2 S  1.22608607E+01  0.397687
  2 S  4.99870760E+00  0.246278

  3 S  1.17031082E+00  1.000000

  4 S  4.64747410E-01  1.000000

  5 S  1.85045364E-01  1.000000

  6 S  7.02880263E-02  1.000000

  7 P  6.32749548E+01  0.006069
  7 P  1.46270494E+01  0.041913
  7 P  4.45012235E+00  0.161538
  7 P  1.52757996E+00  0.357070

  8 P  5.29351179E-01  1.000000

  9 P  1.74784213E-01  1.000000

 10 P  5.11127457E-02  1.000000

 11 D  2.31400000E+00  1.000000

 12 D  6.45000000E-01  1.000000

 13 D  1.46964774E-01  1.000000

 14 F  1.42800000E+00  1.000000



 Summary of "ao basis" -> "ao basis" (cartesian)
 ------------------------------------------------------------------------------
       Tag                 Description            Shells   Functions and Types
 ---------------- ------------------------------  ------  ---------------------
 N                         def2-TZVPD               13       43   6s3p3d1f
 C                         def2-TZVPD               13       43   6s3p3d1f
 O                         def2-TZVPD               14       46   6s4p3d1f




 Summary of "ao basis" -> "ao basis" (cartesian)
 ------------------------------------------------------------------------------
       Tag                 Description            Shells   Functions and Types
 ---------------- ------------------------------  ------  ---------------------
 N                         def2-TZVPD               13       43   6s3p3d1f
 C                         def2-TZVPD               13       43   6s3p3d1f
 O                         def2-TZVPD               14       46   6s4p3d1f


  int_init: cando_txs set to always be  F
  Caching 1-el integrals 

            General Information
            -------------------
          SCF calculation type: DFT
          Wavefunction type:  spin polarized.
          No. of atoms     :     3
          No. of electrons :    21
           Alpha electrons :    11
            Beta electrons :    10
          Charge           :     0
          Spin multiplicity:     2
          Use of symmetry is: off; symmetry adaption is: off
          Maximum number of iterations:  50
          AO basis - number of functions:   132
                     number of shells:    40
          Convergence on energy requested:  1.00D-06
          Convergence on density requested:  1.00D-05
          Convergence on gradient requested:  5.00D-04

              XC Information
              --------------
                     Hartree-Fock (Exact) Exchange  1.000          
                     LC-wPBE(h)Exchange Functional  1.000          
            Perdew 1991 LDA Correlation Functional  1.000 local    
           PerdewBurkeErnz. Correlation Functional  1.000 non-local

           Range-Separation Parameters        
           ---------------------------
           Alpha           :  0.00
           Beta            :  1.00
           Gamma           :  0.35
           Short-Range HF  :     F

             Grid Information
             ----------------
          Grid used for XC integration:  xfine     
          Radial quadrature: Mura-Knowles        
          Angular quadrature: Lebedev. 
          Tag              B.-S. Rad. Rad. Pts. Rad. Cut. Ang. Pts.
          ---              ---------- --------- --------- ---------
          N                   0.65      100          11.0      1454
          C                   0.70      100          10.0      1454
          O                   0.60      100          11.0      1454
          Grid pruning is: on 
          Number of quadrature shells:   300
          Spatial weights used:  Erf1

          Convergence Information
          -----------------------
          Convergence aids based upon iterative change in 
          total energy or number of iterations. 
          Levelshifting, if invoked, occurs when the 
          HOMO/LUMO gap drops below (HL_TOL):  1.00D-02
          DIIS, if invoked, will attempt to extrapolate 
          using up to (NFOCK): 10 stored Fock matrices.

                    Damping( 0%)  Levelshifting(0.5)       DIIS
                  --------------- ------------------- ---------------
          dE  on:    start            ASAP                start   
          dE off:    2 iters         50 iters            50 iters 


      Screening Tolerance Information
      -------------------------------
          Density screening/tol_rho:  1.00D-10
          AO Gaussian exp screening on grid/accAOfunc:  14
          CD Gaussian exp screening on grid/accCDfunc:  20
          XC Gaussian exp screening on grid/accXCfunc:  20
          Schwarz screening/accCoul:  1.00D-08

  
  CAM type calculations without CDFIT are
  only available with the direct option.
  Forcing Direct SCF
  

      Superposition of Atomic Density Guess
      -------------------------------------

 Sum of atomic energies:        -166.76731637

      Non-variational initial energy
      ------------------------------

 Total energy =    -167.655726
 1-e energy   =    -330.046174
 2-e energy   =     110.367377
 HOMO         =      -0.348335
 LUMO         =       0.044483

  WARNING: movecs_in_org=atomic not equal to movecs_in=./nco.movecs
   Time after variat. SCF:      0.4
   Time prior to 1st pass:      0.4

 Grid_pts file          = ./nco.gridpts.0
 Record size in doubles =  12289        No. of grid_pts per rec  =   3070
 Max. records in memory =     21        Max. recs in file   = 126656358

 Grid integrated density:      20.999998872183
 Requested integration accuracy:   0.10E-07

           Memory utilization after 1st SCF pass: 
           Heap Space remaining (MW):     1572.71          1572712144
          Stack Space remaining (MW):     2621.44          2621438804

   convergence    iter        energy       DeltaE   RMS-Dens  Diis-err    time
 ---------------- ----- ----------------- --------- --------- ---------  ------
 d= 0,ls=0.0,diis     1   -167.8446189575 -2.20D+02  4.13D-03  3.26D-01     3.0
                                                     4.05D-03  3.23D-01
 Grid integrated density:      20.999998961714
 Requested integration accuracy:   0.10E-07
 d= 0,ls=0.0,diis     2   -167.8650339095 -2.04D-02  1.61D-03  2.13D-01     5.7
                                                     1.62D-03  1.89D-01
 d= 0,ls=0.0,diis     3   -167.9224990891 -5.75D-02  5.03D-04  3.29D-02     8.7
                                                     5.33D-04  3.66D-02
 d= 0,ls=0.0,diis     4   -167.9327782318 -1.03D-02  2.05D-04  3.17D-03    11.7
                                                     2.01D-04  3.06D-03
 d= 0,ls=0.0,diis     5   -167.9339094961 -1.13D-03  7.87D-05  4.40D-04    14.3
                                                     7.13D-05  2.55D-04
  Resetting Diis
 d= 0,ls=0.0,diis     6   -167.9341016436 -1.92D-04  5.39D-05  2.75D-05    17.0
                                                     6.71D-05  3.36D-05
 d= 0,ls=0.0,diis     7   -167.9341612466 -5.96D-05  1.18D-05  4.01D-06    19.9
                                                     1.47D-05  3.35D-06
 d= 0,ls=0.0,diis     8   -167.9341686142 -7.37D-06  7.34D-06  1.04D-06    22.6
                                                     1.19D-05  2.46D-06
 d= 0,ls=0.0,diis     9   -167.9341719099 -3.30D-06  1.27D-05  2.73D-06    25.4
                                                     1.70D-05  1.66D-06
 d= 0,ls=0.0,diis    10   -167.9341749247 -3.01D-06  1.95D-06  5.74D-08    28.2
                                                     2.13D-06  4.23D-08
 d= 0,ls=0.0,diis    11   -167.9341750127 -8.80D-08  1.22D-06  2.59D-08    31.1
                                                     1.29D-06  1.78D-08


         Total DFT energy =     -167.934175012744
      One electron energy =     -330.799018629679
           Coulomb energy =      131.496213462558
    Exchange-Corr. energy =      -20.654440742272
 Nuclear repulsion energy =       52.023070896649

 Numeric. integr. density =       20.999999995096

     Total iterative time =     30.7s



                    DFT Final Alpha Molecular Orbital Analysis
                    ------------------------------------------

 Vector    1  Occ=1.000000D+00  E=-1.906089D+01
              MO Center=  8.0D-13,  8.4D-13,  1.1D+00, r^2= 1.5D-02
   Bfn.  Coefficient  Atom+Function         Bfn.  Coefficient  Atom+Function  
  ----- ------------  ---------------      ----- ------------  ---------------
    88      0.632821  3 O  s                 87      0.436012  3 O  s          
    90     -0.105669  3 O  s                 89      0.094247  3 O  s          

 Vector    2  Occ=1.000000D+00  E=-1.426392D+01
              MO Center= -1.1D-12, -1.0D-12, -1.3D+00, r^2= 2.0D-02
   Bfn.  Coefficient  Atom+Function         Bfn.  Coefficient  Atom+Function  
  ----- ------------  ---------------      ----- ------------  ---------------
     2      0.619108  1 N  s                  1      0.449254  1 N  s          
     4     -0.117718  1 N  s                  3      0.099587  1 N  s          

 Vector    3  Occ=1.000000D+00  E=-1.024523D+01
              MO Center= -2.6D-12, -2.5D-12, -3.8D-02, r^2= 2.8D-02
   Bfn.  Coefficient  Atom+Function         Bfn.  Coefficient  Atom+Function  
  ----- ------------  ---------------      ----- ------------  ---------------
    45      0.599325  2 C  s                 44      0.467974  2 C  s          
    46      0.103388  2 C  s                 47     -0.100405  2 C  s          

 Vector    4  Occ=1.000000D+00  E=-1.270290D+00
              MO Center=  9.7D-11,  9.4D-11,  7.7D-01, r^2= 4.9D-01
   Bfn.  Coefficient  Atom+Function         Bfn.  Coefficient  Atom+Function  
  ----- ------------  ---------------      ----- ------------  ---------------
    89      0.329941  3 O  s                 90      0.315426  3 O  s          
    46      0.216371  2 C  s                 88     -0.209496  3 O  s          
    52      0.144638  2 C  pz                95     -0.131682  3 O  pz         
    45     -0.119263  2 C  s                 91      0.106263  3 O  s          
    55      0.102790  2 C  pz                87     -0.091509  3 O  s          

 Vector    5  Occ=1.000000D+00  E=-1.083729D+00
              MO Center=  6.2D-11,  5.2D-11, -7.7D-01, r^2= 6.2D-01
   Bfn.  Coefficient  Atom+Function         Bfn.  Coefficient  Atom+Function  
  ----- ------------  ---------------      ----- ------------  ---------------
     3      0.332052  1 N  s                 52     -0.217822  2 C  pz         
     4      0.200667  1 N  s                  2     -0.191320  1 N  s          
    46      0.187270  2 C  s                 47      0.178739  2 C  s          
     9      0.148248  1 N  pz                55     -0.134216  2 C  pz         
    45     -0.108223  2 C  s                  1     -0.087574  1 N  s          

 Vector    6  Occ=1.000000D+00  E=-6.810708D-01
              MO Center=  3.9D-10,  8.0D-10,  1.1D+00, r^2= 8.9D-01
   Bfn.  Coefficient  Atom+Function         Bfn.  Coefficient  Atom+Function  
  ----- ------------  ---------------      ----- ------------  ---------------
    95      0.383270  3 O  pz                47     -0.311915  2 C  s          
    90      0.299065  3 O  s                 91      0.262557  3 O  s          
    98      0.222054  3 O  pz                89      0.199444  3 O  s          
    46     -0.194044  2 C  s                 52     -0.166241  2 C  pz         
    55     -0.130817  2 C  pz                88     -0.119497  3 O  s          

 Vector    7  Occ=1.000000D+00  E=-6.442862D-01
              MO Center=  3.5D-11, -9.6D-10,  3.6D-01, r^2= 1.3D+00
   Bfn.  Coefficient  Atom+Function         Bfn.  Coefficient  Atom+Function  
  ----- ------------  ---------------      ----- ------------  ---------------
    94      0.344284  3 O  py                97      0.275899  3 O  py         
    51      0.269521  2 C  py                54      0.186102  2 C  py         
     8      0.178121  1 N  py               100      0.149659  3 O  py         
    11      0.146654  1 N  py                14      0.073516  1 N  py         
    85      0.054681  2 C  fyzz             115     -0.036553  3 O  dyz        

 Vector    8  Occ=1.000000D+00  E=-6.215559D-01
              MO Center= -4.2D-10,  1.3D-10,  4.1D-01, r^2= 1.3D+00
   Bfn.  Coefficient  Atom+Function         Bfn.  Coefficient  Atom+Function  
  ----- ------------  ---------------      ----- ------------  ---------------
    93      0.344036  3 O  px                50      0.279611  2 C  px         
    96      0.275927  3 O  px                53      0.195398  2 C  px         
     7      0.157105  1 N  px                99      0.152810  3 O  px         
    10      0.127319  1 N  px                13      0.067333  1 N  px         
    82      0.054417  2 C  fxzz             113     -0.036991  3 O  dxz        

 Vector    9  Occ=1.000000D+00  E=-5.559164D-01
              MO Center= -4.4D-10, -6.8D-10, -1.3D+00, r^2= 1.0D+00
   Bfn.  Coefficient  Atom+Function         Bfn.  Coefficient  Atom+Function  
  ----- ------------  ---------------      ----- ------------  ---------------
     4      0.417269  1 N  s                  9     -0.352257  1 N  pz         
    47     -0.313871  2 C  s                  5      0.255315  1 N  s          
     3      0.216027  1 N  s                 52      0.206231  2 C  pz         
    55      0.192826  2 C  pz                12     -0.165754  1 N  pz         
     2     -0.130988  1 N  s                 46     -0.126185  2 C  s          

 Vector   10  Occ=1.000000D+00  E=-4.836324D-01
              MO Center=  7.4D-11,  7.8D-10, -3.7D-01, r^2= 1.9D+00
   Bfn.  Coefficient  Atom+Function         Bfn.  Coefficient  Atom+Function  
  ----- ------------  ---------------      ----- ------------  ---------------
     8      0.368126  1 N  py                11      0.318448  1 N  py         
    94     -0.303663  3 O  py                97     -0.255773  3 O  py         
    14      0.165950  1 N  py               100     -0.145313  3 O  py         
    69     -0.096293  2 C  dyz               51      0.088696  2 C  py         
    54      0.074624  2 C  py                63     -0.056281  2 C  dyz        

 Vector   11  Occ=1.000000D+00  E=-4.421728D-01
              MO Center=  4.4D-10, -1.2D-11, -3.8D-01, r^2= 1.9D+00
   Bfn.  Coefficient  Atom+Function         Bfn.  Coefficient  Atom+Function  
  ----- ------------  ---------------      ----- ------------  ---------------
     7      0.357470  1 N  px                10      0.306598  1 N  px         
    93     -0.297912  3 O  px                96     -0.252779  3 O  px         
    13      0.164027  1 N  px                99     -0.150037  3 O  px         
    50      0.112870  2 C  px                67     -0.103272  2 C  dxz        
    53      0.097088  2 C  px                73     -0.057645  2 C  dxz        

 Vector   12  Occ=0.000000D+00  E= 4.362730D-02
              MO Center= -1.7D-09, -1.9D-09,  5.8D-01, r^2= 1.1D+01
   Bfn.  Coefficient  Atom+Function         Bfn.  Coefficient  Atom+Function  
  ----- ------------  ---------------      ----- ------------  ---------------
    49      7.428724  2 C  s                 92     -4.699906  3 O  s          
     6     -2.251991  1 N  s                  5      1.225732  1 N  s          
    58      1.175632  2 C  pz               104      1.054784  3 O  pz         
    71     -0.855093  2 C  dxx               74     -0.834828  2 C  dyy        
    76     -0.818979  2 C  dzz               47      0.744771  2 C  s          

 Vector   13  Occ=0.000000D+00  E= 9.328342D-02
              MO Center= -4.5D-10, -9.4D-10,  1.7D+00, r^2= 1.3D+01
   Bfn.  Coefficient  Atom+Function         Bfn.  Coefficient  Atom+Function  
  ----- ------------  ---------------      ----- ------------  ---------------
    92     12.251796  3 O  s                 48     -7.318977  2 C  s          
     6      6.161067  1 N  s                 76     -5.944367  2 C  dzz        
    58     -4.544617  2 C  pz               104     -3.679521  3 O  pz         
    91      2.627763  3 O  s                  5     -2.591200  1 N  s          
    15     -2.188322  1 N  pz                71     -2.056306  2 C  dxx        

 Vector   14  Occ=0.000000D+00  E= 1.019739D-01
              MO Center=  1.6D-10,  4.6D-09,  1.0D+00, r^2= 9.2D+00
   Bfn.  Coefficient  Atom+Function         Bfn.  Coefficient  Atom+Function  
  ----- ------------  ---------------      ----- ------------  ---------------
   103      1.646773  3 O  py                75     -1.265286  2 C  dyz        
    57     -1.097987  2 C  py               100      0.562684  3 O  py         
   121     -0.491926  3 O  dyz               51     -0.236769  2 C  py         
    54     -0.205216  2 C  py                14     -0.187786  1 N  py         
    69     -0.148027  2 C  dyz               11      0.109756  1 N  py         

 Vector   15  Occ=0.000000D+00  E= 1.035542D-01
              MO Center=  9.5D-11, -2.7D-09,  1.6D-02, r^2= 3.3D+00
   Bfn.  Coefficient  Atom+Function         Bfn.  Coefficient  Atom+Function  
  ----- ------------  ---------------      ----- ------------  ---------------
   103      0.654054  3 O  py                75     -0.435893  2 C  dyz        
    14     -0.398543  1 N  py                51      0.352447  2 C  py         
    54      0.345687  2 C  py               121     -0.322438  3 O  dyz        
     8     -0.267021  1 N  py                94     -0.245190  3 O  py         
    11     -0.239006  1 N  py                97     -0.236362  3 O  py         

 Vector   16  Occ=0.000000D+00  E= 1.047076D-01
              MO Center=  2.7D-09, -1.3D-10,  1.2D+00, r^2= 1.0D+01
   Bfn.  Coefficient  Atom+Function         Bfn.  Coefficient  Atom+Function  
  ----- ------------  ---------------      ----- ------------  ---------------
   102      1.776030  3 O  px                73     -1.328666  2 C  dxz        
    56     -1.099986  2 C  px               119     -0.569962  3 O  dxz        
    99      0.523256  3 O  px                13     -0.277407  1 N  px         
    67     -0.164542  2 C  dxz               50     -0.129647  2 C  px         
   103     -0.103371  3 O  py                53     -0.095584  2 C  px         

 Vector   17  Occ=0.000000D+00  E= 1.241183D-01
              MO Center= -3.0D-09,  3.0D-10, -2.3D-01, r^2= 2.1D+00
   Bfn.  Coefficient  Atom+Function         Bfn.  Coefficient  Atom+Function  
  ----- ------------  ---------------      ----- ------------  ---------------
    50      0.397613  2 C  px                53      0.371241  2 C  px         
    13     -0.306249  1 N  px                 7     -0.281660  1 N  px         
    10     -0.268342  1 N  px                93     -0.247794  3 O  px         
    99     -0.237710  3 O  px                96     -0.219806  3 O  px         
    30      0.213841  1 N  dxz               56      0.201119  2 C  px         

 Vector   18  Occ=0.000000D+00  E= 1.464980D-01
              MO Center= -1.1D-09, -2.3D-09, -1.1D+00, r^2= 1.3D+01
   Bfn.  Coefficient  Atom+Function         Bfn.  Coefficient  Atom+Function  
  ----- ------------  ---------------      ----- ------------  ---------------
     6     11.420795  1 N  s                 49     -4.681927  2 C  s          
    48      3.121484  2 C  s                  5     -2.548915  1 N  s          
    33     -2.130218  1 N  dzz               28     -1.842009  1 N  dxx        
    31     -1.830016  1 N  dyy              104      1.712324  3 O  pz         
    91     -1.260549  3 O  s                101      1.096350  3 O  pz         

 Vector   19  Occ=0.000000D+00  E= 1.802265D-01
              MO Center=  4.5D-09,  4.3D-09,  1.7D-01, r^2= 9.7D+00
   Bfn.  Coefficient  Atom+Function         Bfn.  Coefficient  Atom+Function  
  ----- ------------  ---------------      ----- ------------  ---------------
    49     12.888666  2 C  s                 92    -10.125091  3 O  s          
     6     -5.643296  1 N  s                 74     -2.073173  2 C  dyy        
    71     -2.033107  2 C  dxx              117      1.162469  3 O  dxx        
   120      1.160459  3 O  dyy              104      1.117470  3 O  pz         
    76     -1.090770  2 C  dzz               47      1.006610  2 C  s          

 Vector   20  Occ=0.000000D+00  E= 2.429867D-01
              MO Center=  4.7D-08,  6.6D-07,  6.8D-01, r^2= 1.1D+01
   Bfn.  Coefficient  Atom+Function         Bfn.  Coefficient  Atom+Function  
  ----- ------------  ---------------      ----- ------------  ---------------
    92     25.652291  3 O  s                 48    -15.265537  2 C  s          
    76    -11.521121  2 C  dzz                6      6.902073  1 N  s          
   104     -4.603162  3 O  pz                74     -4.096668  2 C  dyy        
     5      3.787969  1 N  s                 49     -3.550817  2 C  s          
    71     -3.312637  2 C  dxx               15     -1.864602  1 N  pz         

 Vector   21  Occ=0.000000D+00  E= 2.432153D-01
              MO Center= -3.7D-08, -6.5D-07, -7.4D-01, r^2= 7.8D+00
   Bfn.  Coefficient  Atom+Function         Bfn.  Coefficient  Atom+Function  
  ----- ------------  ---------------      ----- ------------  ---------------
    75      2.908389  2 C  dyz               57     -2.519351  2 C  py         
    14      2.214570  1 N  py                32      1.592421  1 N  dyz        
   103      0.431622  3 O  py               100     -0.312662  3 O  py         
   121     -0.265848  3 O  dyz               11     -0.256858  1 N  py         
     8      0.182977  1 N  py                73      0.169279  2 C  dxz        

 Vector   22  Occ=0.000000D+00  E= 2.469919D-01
              MO Center= -1.5D-09, -5.8D-10, -5.8D-02, r^2= 5.5D+00
   Bfn.  Coefficient  Atom+Function         Bfn.  Coefficient  Atom+Function  
  ----- ------------  ---------------      ----- ------------  ---------------
    72      1.987220  2 C  dxy              118     -0.215808  3 O  dxy        
    29     -0.188467  1 N  dxy               71      0.116061  2 C  dxx        
    74     -0.116055  2 C  dyy               23      0.068372  1 N  dxy        
   112      0.056533  3 O  dxy               60      0.052733  2 C  dxy        
    66     -0.040841  2 C  dxy        

 Vector   23  Occ=0.000000D+00  E= 2.478731D-01
              MO Center=  4.6D-09, -8.7D-10,  7.8D-02, r^2= 6.6D+00
   Bfn.  Coefficient  Atom+Function         Bfn.  Coefficient  Atom+Function  
  ----- ------------  ---------------      ----- ------------  ---------------
    92     11.026836  3 O  s                 48     -6.424226  2 C  s          
    76     -4.951146  2 C  dzz                6      3.034289  1 N  s          
    71     -2.545155  2 C  dxx              104     -1.963661  3 O  pz         
     5      1.521420  1 N  s                 49     -1.477301  2 C  s          
    15     -0.818455  1 N  pz                58     -0.746404  2 C  pz         

 Vector   24  Occ=0.000000D+00  E= 2.508695D-01
              MO Center= -1.1D-08,  1.3D-09, -7.4D-01, r^2= 7.7D+00
   Bfn.  Coefficient  Atom+Function         Bfn.  Coefficient  Atom+Function  
  ----- ------------  ---------------      ----- ------------  ---------------
    73      2.958894  2 C  dxz               56     -2.560066  2 C  px         
    13      2.293154  1 N  px                30      1.613821  1 N  dxz        
   102      0.412029  3 O  px                99     -0.316086  3 O  px         
    10     -0.258386  1 N  px               119     -0.252078  3 O  dxz        
     7      0.192834  1 N  px                75     -0.172219  2 C  dyz        

 Vector   25  Occ=0.000000D+00  E= 3.465975D-01
              MO Center=  3.9D-09,  3.4D-09, -3.1D-01, r^2= 7.7D+00
   Bfn.  Coefficient  Atom+Function         Bfn.  Coefficient  Atom+Function  
  ----- ------------  ---------------      ----- ------------  ---------------
    48    -22.159924  2 C  s                  5     21.991185  1 N  s          
    76     -9.858954  2 C  dzz               58      9.123060  2 C  pz         
    49      8.039919  2 C  s                 92     -5.326711  3 O  s          
     6     -4.797072  1 N  s                 15      3.973557  1 N  pz         
    91      3.885598  3 O  s                 33      3.800793  1 N  dzz        

 Vector   26  Occ=0.000000D+00  E= 3.701758D-01
              MO Center= -2.5D-10,  1.4D-08,  8.3D-01, r^2= 7.3D+00
   Bfn.  Coefficient  Atom+Function         Bfn.  Coefficient  Atom+Function  
  ----- ------------  ---------------      ----- ------------  ---------------
    57      3.541314  2 C  py                75      3.260193  2 C  dyz        
   103     -1.847815  3 O  py               100     -1.670075  3 O  py         
   121      1.465263  3 O  dyz               54     -0.489060  2 C  py         
    32     -0.358964  1 N  dyz               69      0.343330  2 C  dyz        
    14      0.285909  1 N  py                56      0.206117  2 C  px         

 Vector   27  Occ=0.000000D+00  E= 3.752035D-01
              MO Center=  1.1D-07, -7.3D-09,  8.3D-01, r^2= 7.3D+00
   Bfn.  Coefficient  Atom+Function         Bfn.  Coefficient  Atom+Function  
  ----- ------------  ---------------      ----- ------------  ---------------
    56      3.556593  2 C  px                73      3.275742  2 C  dxz        
   102     -1.844618  3 O  px                99     -1.690070  3 O  px         
   119      1.478421  3 O  dxz               53     -0.483398  2 C  px         
    30     -0.369082  1 N  dxz               67      0.342546  2 C  dxz        
    13      0.284519  1 N  px                57     -0.207006  2 C  py         

 Vector   28  Occ=0.000000D+00  E= 3.761134D-01
              MO Center= -1.1D-07, -1.3D-08,  7.3D-01, r^2= 8.2D+00
   Bfn.  Coefficient  Atom+Function         Bfn.  Coefficient  Atom+Function  
  ----- ------------  ---------------      ----- ------------  ---------------
     5     15.947777  1 N  s                 58     13.316385  2 C  pz         
    48     -7.230837  2 C  s                 92     -6.760101  3 O  s          
    15      6.689668  1 N  pz                49     -5.308392  2 C  s          
    71      4.473307  2 C  dxx               74      4.464313  2 C  dyy        
    91     -4.027187  3 O  s                 76      3.481969  2 C  dzz        

 Vector   29  Occ=0.000000D+00  E= 4.266308D-01
              MO Center=  2.5D-09,  3.4D-09,  3.8D-02, r^2= 1.0D+01
   Bfn.  Coefficient  Atom+Function         Bfn.  Coefficient  Atom+Function  
  ----- ------------  ---------------      ----- ------------  ---------------
    48     68.500643  2 C  s                  5    -34.961071  1 N  s          
    76     29.113029  2 C  dzz               91    -28.337455  3 O  s          
    92    -15.650301  3 O  s                  6    -13.260091  1 N  s          
    49      7.786733  2 C  s                117     -7.790373  3 O  dxx        
   120     -7.804944  3 O  dyy              122     -6.301473  3 O  dzz        

 Vector   30  Occ=0.000000D+00  E= 4.420347D-01
              MO Center=  2.0D-09,  3.6D-09, -1.2D+00, r^2= 8.9D+00
   Bfn.  Coefficient  Atom+Function         Bfn.  Coefficient  Atom+Function  
  ----- ------------  ---------------      ----- ------------  ---------------
    48     38.441569  2 C  s                  5    -21.532392  1 N  s          
    91    -13.755137  3 O  s                  6      9.681584  1 N  s          
    76      9.460985  2 C  dzz               92     -7.796418  3 O  s          
    33     -5.944434  1 N  dzz               31     -5.559011  1 N  dyy        
    28     -5.033064  1 N  dxx               15     -4.260838  1 N  pz         

 Vector   31  Occ=0.000000D+00  E= 4.505118D-01
              MO Center=  1.5D-09,  1.2D-09, -6.1D-01, r^2= 5.5D+00
   Bfn.  Coefficient  Atom+Function         Bfn.  Coefficient  Atom+Function  
  ----- ------------  ---------------      ----- ------------  ---------------
    29      2.021547  1 N  dxy               72     -0.952988  2 C  dxy        
   118     -0.727790  3 O  dxy               28      0.118060  1 N  dxx        
    31     -0.118067  1 N  dyy               23     -0.066123  1 N  dxy        
    71     -0.055660  2 C  dxx               74      0.055654  2 C  dyy        
    66      0.048249  2 C  dxy               17      0.047606  1 N  dxy        

 Vector   32  Occ=0.000000D+00  E= 4.513678D-01
              MO Center=  1.0D-09,  2.1D-10, -6.8D-01, r^2= 5.7D+00
   Bfn.  Coefficient  Atom+Function         Bfn.  Coefficient  Atom+Function  
  ----- ------------  ---------------      ----- ------------  ---------------
    48      4.377480  2 C  s                  6      3.687473  1 N  s          
     5     -2.300975  1 N  s                 28     -1.995956  1 N  dxx        
    91     -1.826525  3 O  s                 33     -1.426597  1 N  dzz        
    74     -0.970801  2 C  dyy              101      0.917712  3 O  pz         
    15     -0.853269  1 N  pz                47      0.838610  2 C  s          

 Vector   33  Occ=0.000000D+00  E= 4.891024D-01
              MO Center= -2.1D-09, -1.1D-08, -1.1D+00, r^2= 6.0D+00
   Bfn.  Coefficient  Atom+Function         Bfn.  Coefficient  Atom+Function  
  ----- ------------  ---------------      ----- ------------  ---------------
    32      2.198245  1 N  dyz               75     -1.806817  2 C  dyz        
    54     -1.176567  2 C  py               121     -1.059322  3 O  dyz        
    57     -0.886538  2 C  py               100      0.623249  3 O  py         
   103      0.575235  3 O  py                14     -0.415986  1 N  py         
    11      0.390665  1 N  py                85      0.231875  2 C  fyzz       

 Vector   34  Occ=0.000000D+00  E= 4.966694D-01
              MO Center= -8.6D-09, -8.9D-10, -1.1D+00, r^2= 6.0D+00
   Bfn.  Coefficient  Atom+Function         Bfn.  Coefficient  Atom+Function  
  ----- ------------  ---------------      ----- ------------  ---------------
    30      2.238913  1 N  dxz               73     -1.774210  2 C  dxz        
    53     -1.199933  2 C  px               119     -1.083466  3 O  dxz        
    56     -0.952080  2 C  px                99      0.646238  3 O  px         
   102      0.580209  3 O  px                10      0.386861  1 N  px         
    13     -0.350140  1 N  px                82      0.239604  2 C  fxzz       

 Vector   35  Occ=0.000000D+00  E= 5.509481D-01
              MO Center= -5.8D-09, -9.2D-09,  6.0D-01, r^2= 9.3D+00
   Bfn.  Coefficient  Atom+Function         Bfn.  Coefficient  Atom+Function  
  ----- ------------  ---------------      ----- ------------  ---------------
    92     39.687671  3 O  s                 76    -22.726756  2 C  dzz        
    48    -19.858005  2 C  s                  6     13.300246  1 N  s          
    49     -7.643952  2 C  s                  5      5.588712  1 N  s          
    15     -5.145496  1 N  pz                71     -5.129565  2 C  dxx        
    74     -5.066208  2 C  dyy              104     -4.770550  3 O  pz         

 Vector   36  Occ=0.000000D+00  E= 5.830711D-01
              MO Center= -1.9D-06, -3.4D-06,  1.1D+00, r^2= 5.3D+00
   Bfn.  Coefficient  Atom+Function         Bfn.  Coefficient  Atom+Function  
  ----- ------------  ---------------      ----- ------------  ---------------
   121      2.655395  3 O  dyz               75     -1.704477  2 C  dyz        
    32      1.097163  1 N  dyz               54      0.638463  2 C  py         
    57      0.463706  2 C  py                69      0.416562  2 C  dyz        
   103     -0.328787  3 O  py                14     -0.320329  1 N  py         
    97     -0.314025  3 O  py               100      0.205242  3 O  py         

 Vector   37  Occ=0.000000D+00  E= 5.831252D-01
              MO Center=  2.0D-07,  3.6D-06,  4.6D-01, r^2= 5.7D+00
   Bfn.  Coefficient  Atom+Function         Bfn.  Coefficient  Atom+Function  
  ----- ------------  ---------------      ----- ------------  ---------------
    48      4.051030  2 C  s                  5     -2.461056  1 N  s          
    76      2.324636  2 C  dzz              120     -1.753378  3 O  dyy        
    74      1.712337  2 C  dyy               31     -1.426294  1 N  dyy        
    71     -1.358419  2 C  dxx               91     -1.284237  3 O  s          
    92     -1.217887  3 O  s                117      0.756821  3 O  dxx        

 Vector   38  Occ=0.000000D+00  E= 5.832207D-01
              MO Center=  1.7D-06, -1.4D-07,  4.6D-01, r^2= 5.7D+00
   Bfn.  Coefficient  Atom+Function         Bfn.  Coefficient  Atom+Function  
  ----- ------------  ---------------      ----- ------------  ---------------
    72      3.076366  2 C  dxy              118     -2.514358  3 O  dxy        
    29     -1.906453  1 N  dxy               66     -0.196427  2 C  dxy        
    71      0.179355  2 C  dxx               74     -0.179275  2 C  dyy        
   117     -0.146669  3 O  dxx              120      0.146444  3 O  dyy        
    28     -0.111231  1 N  dxx               31      0.111015  1 N  dyy        

 Vector   39  Occ=0.000000D+00  E= 5.888464D-01
              MO Center=  1.9D-08,  4.0D-08,  1.1D+00, r^2= 5.3D+00
   Bfn.  Coefficient  Atom+Function         Bfn.  Coefficient  Atom+Function  
  ----- ------------  ---------------      ----- ------------  ---------------
   119      2.689869  3 O  dxz               73     -1.775282  2 C  dxz        
    30      1.049492  1 N  dxz               53      0.661039  2 C  px         
    56      0.553739  2 C  px                13     -0.428245  1 N  px         
    67      0.426927  2 C  dxz              102     -0.336128  3 O  px         
    96     -0.321044  3 O  px                99      0.194664  3 O  px         

 Vector   40  Occ=0.000000D+00  E= 6.408269D-01
              MO Center= -2.0D-09, -2.8D-09, -1.5D-01, r^2= 7.2D+00
   Bfn.  Coefficient  Atom+Function         Bfn.  Coefficient  Atom+Function  
  ----- ------------  ---------------      ----- ------------  ---------------
    48     44.972454  2 C  s                  5    -29.493223  1 N  s          
    76     28.633573  2 C  dzz               91    -14.173869  3 O  s          
    49     -9.729861  2 C  s                 92     -9.065984  3 O  s          
   117     -7.111132  3 O  dxx              120     -6.975444  3 O  dyy        
    28     -6.820888  1 N  dxx               31     -6.682004  1 N  dyy        

 Vector   41  Occ=0.000000D+00  E= 7.288653D-01
              MO Center= -1.4D-09, -3.5D-10, -1.0D+00, r^2= 4.8D+00
   Bfn.  Coefficient  Atom+Function         Bfn.  Coefficient  Atom+Function  
  ----- ------------  ---------------      ----- ------------  ---------------
    14      5.356531  1 N  py                57     -4.086623  2 C  py         
    75      3.185612  2 C  dyz               32      2.773836  1 N  dyz        
    11     -1.477937  1 N  py               121     -1.186405  3 O  dyz        
    54     -0.755001  2 C  py               103      0.351880  3 O  py         
    69      0.314228  2 C  dyz               13      0.311772  1 N  px         

 Vector   42  Occ=0.000000D+00  E= 7.358041D-01
              MO Center=  1.0D-09, -9.0D-10, -4.4D-01, r^2= 7.3D+00
   Bfn.  Coefficient  Atom+Function         Bfn.  Coefficient  Atom+Function  
  ----- ------------  ---------------      ----- ------------  ---------------
     5     37.565756  1 N  s                 58     31.016764  2 C  pz         
    48    -30.683821  2 C  s                 76     -9.869646  2 C  dzz        
    28      5.406891  1 N  dxx               31      5.396779  1 N  dyy        
    15      5.285908  1 N  pz                91     -4.160923  3 O  s          
     6      2.783088  1 N  s                 74      2.651952  2 C  dyy        

 Vector   43  Occ=0.000000D+00  E= 7.456435D-01
              MO Center= -1.9D-09, -1.0D-09, -1.0D+00, r^2= 4.7D+00
   Bfn.  Coefficient  Atom+Function         Bfn.  Coefficient  Atom+Function  
  ----- ------------  ---------------      ----- ------------  ---------------
    13      5.357149  1 N  px                56     -4.083707  2 C  px         
    73      3.125909  2 C  dxz               30      2.775625  1 N  dxz        
    10     -1.518458  1 N  px               119     -1.145203  3 O  dxz        
    53     -0.733887  2 C  px               102      0.345997  3 O  px         
    67      0.326847  2 C  dxz               14     -0.311808  1 N  py         

 Vector   44  Occ=0.000000D+00  E= 7.999477D-01
              MO Center=  8.1D-10,  9.0D-10,  1.7D-01, r^2= 6.8D+00
   Bfn.  Coefficient  Atom+Function         Bfn.  Coefficient  Atom+Function  
  ----- ------------  ---------------      ----- ------------  ---------------
    92     29.217407  3 O  s                 76    -25.584342  2 C  dzz        
    48    -23.987759  2 C  s                 91     15.693373  3 O  s          
    15    -13.358747  1 N  pz                58    -12.431105  2 C  pz         
     6      8.854688  1 N  s                 55     -5.100527  2 C  pz         
    47      4.965291  2 C  s                 71     -4.185061  2 C  dxx        

 Vector   45  Occ=0.000000D+00  E= 8.733600D-01
              MO Center=  3.7D-10,  5.1D-10,  5.2D-01, r^2= 7.2D+00
   Bfn.  Coefficient  Atom+Function         Bfn.  Coefficient  Atom+Function  
  ----- ------------  ---------------      ----- ------------  ---------------
    48    101.471162  2 C  s                 76     48.549473  2 C  dzz        
     5    -47.482142  1 N  s                 91    -36.283019  3 O  s          
    92    -29.807821  3 O  s                  6    -14.445271  1 N  s          
   117    -13.483587  3 O  dxx              120    -13.540786  3 O  dyy        
    31     -8.041666  1 N  dyy               28     -7.989267  1 N  dxx        

 Vector   46  Occ=0.000000D+00  E= 8.947168D-01
              MO Center=  8.5D-10,  3.7D-10, -7.7D-02, r^2= 2.7D+00
   Bfn.  Coefficient  Atom+Function         Bfn.  Coefficient  Atom+Function  
  ----- ------------  ---------------      ----- ------------  ---------------
    66      1.991580  2 C  dxy              118     -1.041280  3 O  dxy        
    29     -1.020466  1 N  dxy               72      0.286405  2 C  dxy        
    23      0.248696  1 N  dxy               65      0.116332  2 C  dxx        
    68     -0.116341  2 C  dyy              112      0.072690  3 O  dxy        
   117     -0.060840  3 O  dxx              120      0.060810  3 O  dyy        

 Vector   47  Occ=0.000000D+00  E= 8.948953D-01
              MO Center=  1.2D-12,  5.2D-10, -7.6D-02, r^2= 2.7D+00
   Bfn.  Coefficient  Atom+Function         Bfn.  Coefficient  Atom+Function  
  ----- ------------  ---------------      ----- ------------  ---------------
    48      6.821237  2 C  s                  5     -3.164636  1 N  s          
    76      2.936718  2 C  dzz               91     -2.517254  3 O  s          
    92     -1.787718  3 O  s                117     -1.362245  3 O  dxx        
    68     -1.216412  2 C  dyy               28     -1.017034  1 N  dxx        
     6     -0.931194  1 N  s                 65      0.770307  2 C  dxx        

 Vector   48  Occ=0.000000D+00  E= 9.153983D-01
              MO Center= -1.2D-09, -1.4D-09,  9.2D-01, r^2= 4.4D+00
   Bfn.  Coefficient  Atom+Function         Bfn.  Coefficient  Atom+Function  
  ----- ------------  ---------------      ----- ------------  ---------------
   100     -4.862999  3 O  py                57      4.548248  2 C  py         
    75      3.722475  2 C  dyz              121      3.096505  3 O  dyz        
   103     -1.338136  3 O  py                32     -1.312354  1 N  dyz        
    97      1.299905  3 O  py                54      0.845851  2 C  py         
    69      0.523367  2 C  dyz               99     -0.283044  3 O  px         

 Vector   49  Occ=0.000000D+00  E= 9.250096D-01
              MO Center= -1.0D-09, -7.7D-10,  9.3D-01, r^2= 4.4D+00
   Bfn.  Coefficient  Atom+Function         Bfn.  Coefficient  Atom+Function  
  ----- ------------  ---------------      ----- ------------  ---------------
    99     -4.878140  3 O  px                56      4.513487  2 C  px         
    73      3.734587  2 C  dxz              119      3.098647  3 O  dxz        
   102     -1.332027  3 O  px                96      1.311890  3 O  px         
    30     -1.267841  1 N  dxz               53      0.833809  2 C  px         
    67      0.556975  2 C  dxz              100      0.283926  3 O  py         

 Vector   50  Occ=0.000000D+00  E= 1.012138D+00
              MO Center= -8.7D-10, -8.6D-10, -7.1D-01, r^2= 6.0D+00
   Bfn.  Coefficient  Atom+Function         Bfn.  Coefficient  Atom+Function  
  ----- ------------  ---------------      ----- ------------  ---------------
    48     31.861965  2 C  s                 91    -17.088439  3 O  s          
     6      9.788336  1 N  s                  5     -9.277936  1 N  s          
    47      8.009812  2 C  s                101      8.010959  3 O  pz         
    15     -6.738686  1 N  pz                33     -6.652741  1 N  dzz        
    28     -4.426862  1 N  dxx               31     -4.423385  1 N  dyy        

 Vector   51  Occ=0.000000D+00  E= 1.044746D+00
              MO Center= -6.0D-10, -7.0D-10, -4.6D-01, r^2= 4.3D+00
   Bfn.  Coefficient  Atom+Function         Bfn.  Coefficient  Atom+Function  
  ----- ------------  ---------------      ----- ------------  ---------------
     5     23.806616  1 N  s                 92    -23.048467  3 O  s          
    58     19.645154  2 C  pz                76     18.794625  2 C  dzz        
    15     18.184548  1 N  pz                48    -12.800575  2 C  s          
    47    -12.001846  2 C  s                  6     -9.892298  1 N  s          
   101     -7.598669  3 O  pz                71      6.415439  2 C  dxx        

 Vector   52  Occ=0.000000D+00  E= 1.092447D+00
              MO Center=  4.5D-10,  3.0D-10,  8.8D-03, r^2= 6.6D+00
   Bfn.  Coefficient  Atom+Function         Bfn.  Coefficient  Atom+Function  
  ----- ------------  ---------------      ----- ------------  ---------------
    76     27.431227  2 C  dzz               92    -22.761800  3 O  s          
    48     17.320031  2 C  s                 47    -12.526492  2 C  s          
   101    -11.920600  3 O  pz                28     -8.477356  1 N  dxx        
    31     -8.505292  1 N  dyy               15      7.927973  1 N  pz         
    71      5.839085  2 C  dxx               74      5.863751  2 C  dyy        

 Vector   53  Occ=0.000000D+00  E= 1.150927D+00
              MO Center=  2.3D-10,  2.1D-09, -3.1D-01, r^2= 2.7D+00
   Bfn.  Coefficient  Atom+Function         Bfn.  Coefficient  Atom+Function  
  ----- ------------  ---------------      ----- ------------  ---------------
    69      2.779413  2 C  dyz              121      1.729670  3 O  dyz        
   100     -1.366668  3 O  py                32      1.151638  1 N  dyz        
    57      0.867536  2 C  py                11      0.692598  1 N  py         
    14      0.445606  1 N  py                26     -0.415893  1 N  dyz        
   103     -0.362840  3 O  py                75      0.347910  2 C  dyz        

 Vector   54  Occ=0.000000D+00  E= 1.170592D+00
              MO Center=  1.6D-09,  4.9D-12, -3.1D-01, r^2= 2.7D+00
   Bfn.  Coefficient  Atom+Function         Bfn.  Coefficient  Atom+Function  
  ----- ------------  ---------------      ----- ------------  ---------------
    67      2.804524  2 C  dxz              119      1.691389  3 O  dxz        
    99     -1.324114  3 O  px                30      1.144124  1 N  dxz        
    56      0.835528  2 C  px                10      0.715581  1 N  px         
    13      0.442893  1 N  px                24     -0.389820  1 N  dxz        
    96     -0.356624  3 O  px               102     -0.351857  3 O  px         

 Vector   55  Occ=0.000000D+00  E= 1.285283D+00
              MO Center=  8.2D-10,  1.0D-09,  1.1D+00, r^2= 5.0D+00
   Bfn.  Coefficient  Atom+Function         Bfn.  Coefficient  Atom+Function  
  ----- ------------  ---------------      ----- ------------  ---------------
    48     36.174517  2 C  s                  5    -18.090690  1 N  s          
    76     18.180692  2 C  dzz              117     -9.713198  3 O  dxx        
   120     -9.722806  3 O  dyy               91     -8.736826  3 O  s          
    47     -8.651638  2 C  s                 49     -8.414683  2 C  s          
    92      7.726675  3 O  s                122     -6.518188  3 O  dzz        

 Vector   56  Occ=0.000000D+00  E= 1.377151D+00
              MO Center= -2.6D-09, -5.3D-10,  1.7D-01, r^2= 2.9D+00
   Bfn.  Coefficient  Atom+Function         Bfn.  Coefficient  Atom+Function  
  ----- ------------  ---------------      ----- ------------  ---------------
    54      4.675010  2 C  py               121      2.182826  3 O  dyz        
   100     -1.949785  3 O  py                14     -1.512970  1 N  py         
    32     -1.498031  1 N  dyz               57      1.395649  2 C  py         
    51     -1.195858  2 C  py                78     -1.037003  2 C  fxxy       
    83     -1.033890  2 C  fyyy              85     -0.985664  2 C  fyzz       

 Vector   57  Occ=0.000000D+00  E= 1.384691D+00
              MO Center=  1.3D-09, -3.0D-08, -1.0D+00, r^2= 2.1D+00
   Bfn.  Coefficient  Atom+Function         Bfn.  Coefficient  Atom+Function  
  ----- ------------  ---------------      ----- ------------  ---------------
    23      1.966342  1 N  dxy               29     -1.243645  1 N  dxy        
    72      0.669332  2 C  dxy               66     -0.624689  2 C  dxy        
   112     -0.354706  3 O  dxy               81     -0.251208  2 C  fxyz       
   118      0.160921  3 O  dxy               22      0.114845  1 N  dxx        
    25     -0.114846  1 N  dyy               28     -0.072637  1 N  dxx        

 Vector   58  Occ=0.000000D+00  E= 1.385046D+00
              MO Center= -3.0D-08,  3.0D-09, -1.0D+00, r^2= 2.1D+00
   Bfn.  Coefficient  Atom+Function         Bfn.  Coefficient  Atom+Function  
  ----- ------------  ---------------      ----- ------------  ---------------
    25      1.073762  1 N  dyy               22     -0.890934  1 N  dxx        
     5     -0.862978  1 N  s                 28      0.800415  1 N  dxx        
    92      0.781340  3 O  s                 76     -0.740512  2 C  dzz        
    15     -0.693603  1 N  pz                71     -0.517962  2 C  dxx        
    58     -0.495098  2 C  pz                47      0.478717  2 C  s          

 Vector   59  Occ=0.000000D+00  E= 1.385453D+00
              MO Center=  3.2D-08,  2.8D-08,  1.6D-01, r^2= 2.9D+00
   Bfn.  Coefficient  Atom+Function         Bfn.  Coefficient  Atom+Function  
  ----- ------------  ---------------      ----- ------------  ---------------
    53      4.678559  2 C  px               119      2.184683  3 O  dxz        
    99     -1.958506  3 O  px                13     -1.537362  1 N  px         
    30     -1.505778  1 N  dxz               56      1.413978  2 C  px         
    50     -1.196789  2 C  px                77     -1.034656  2 C  fxxx       
    80     -1.031405  2 C  fxyy              82     -0.981284  2 C  fxzz       

 Vector   60  Occ=0.000000D+00  E= 1.531008D+00
              MO Center=  1.3D-09,  8.7D-10, -4.5D-01, r^2= 3.8D+00
   Bfn.  Coefficient  Atom+Function         Bfn.  Coefficient  Atom+Function  
  ----- ------------  ---------------      ----- ------------  ---------------
    48     25.114674  2 C  s                 76     17.625738  2 C  dzz        
    92    -12.596680  3 O  s                 15     10.444065  1 N  pz         
    70     -8.023243  2 C  dzz               46     -7.674629  2 C  s          
    65     -6.734219  2 C  dxx               68     -6.731220  2 C  dyy        
   101     -6.463675  3 O  pz                 6     -6.398594  1 N  s          

 Vector   61  Occ=0.000000D+00  E= 1.672940D+00
              MO Center=  1.0D-11, -1.9D-09, -8.1D-01, r^2= 2.8D+00
   Bfn.  Coefficient  Atom+Function         Bfn.  Coefficient  Atom+Function  
  ----- ------------  ---------------      ----- ------------  ---------------
    26      2.501855  1 N  dyz               14      2.356307  1 N  py         
    69      2.155158  2 C  dyz               75      1.639605  2 C  dyz        
    54     -1.324797  2 C  py               115     -0.759054  3 O  dyz        
    11     -0.589304  1 N  py                32      0.513853  1 N  dyz        
   100     -0.494040  3 O  py                57     -0.436077  2 C  py         

 Vector   62  Occ=0.000000D+00  E= 1.694538D+00
              MO Center= -1.9D-09,  2.6D-10, -8.1D-01, r^2= 2.8D+00
   Bfn.  Coefficient  Atom+Function         Bfn.  Coefficient  Atom+Function  
  ----- ------------  ---------------      ----- ------------  ---------------
    24      2.507052  1 N  dxz               13      2.311380  1 N  px         
    67      2.123486  2 C  dxz               73      1.606491  2 C  dxz        
    53     -1.310018  2 C  px               113     -0.768185  3 O  dxz        
    10     -0.578234  1 N  px                30      0.489791  1 N  dxz        
    99     -0.476413  3 O  px                56     -0.423926  2 C  px         

 Vector   63  Occ=0.000000D+00  E= 1.794462D+00
              MO Center= -4.3D-10, -4.3D-10,  2.2D-01, r^2= 4.0D+00
   Bfn.  Coefficient  Atom+Function         Bfn.  Coefficient  Atom+Function  
  ----- ------------  ---------------      ----- ------------  ---------------
     5     31.398432  1 N  s                 48    -30.265003  2 C  s          
    55     16.319015  2 C  pz                15     12.222327  1 N  pz         
    58     11.274443  2 C  pz                 4      9.496314  1 N  s          
    92     -8.779239  3 O  s                101      7.035002  3 O  pz         
    47     -6.212056  2 C  s                 91     -4.978300  3 O  s          

 Vector   64  Occ=0.000000D+00  E= 1.802400D+00
              MO Center= -1.3D-10, -9.6D-11,  8.8D-01, r^2= 1.7D+00
   Bfn.  Coefficient  Atom+Function         Bfn.  Coefficient  Atom+Function  
  ----- ------------  ---------------      ----- ------------  ---------------
    48      0.977021  2 C  s                114      0.948209  3 O  dyy        
   111     -0.893559  3 O  dxx                5     -0.693181  1 N  s          
    71     -0.682238  2 C  dxx              117      0.615014  3 O  dxx        
   120     -0.569084  3 O  dyy               91     -0.536300  3 O  s          
    47      0.513450  2 C  s                 74      0.395772  2 C  dyy        

 Vector   65  Occ=0.000000D+00  E= 1.802463D+00
              MO Center= -1.7D-10, -1.5D-10,  8.8D-01, r^2= 1.7D+00
   Bfn.  Coefficient  Atom+Function         Bfn.  Coefficient  Atom+Function  
  ----- ------------  ---------------      ----- ------------  ---------------
   112      1.842422  3 O  dxy              118     -1.184556  3 O  dxy        
    72      1.078601  2 C  dxy               23      0.633846  1 N  dxy        
    29     -0.622117  1 N  dxy               66     -0.606884  2 C  dxy        
    81      0.439646  2 C  fxyz             111      0.107410  3 O  dxx        
   114     -0.107398  3 O  dyy              117     -0.069046  3 O  dxx        

 Vector   66  Occ=0.000000D+00  E= 1.986200D+00
              MO Center=  3.7D-10,  1.3D-09, -8.8D-01, r^2= 2.8D+00
   Bfn.  Coefficient  Atom+Function         Bfn.  Coefficient  Atom+Function  
  ----- ------------  ---------------      ----- ------------  ---------------
    48     35.283072  2 C  s                  5    -29.636512  1 N  s          
    47     13.538495  2 C  s                 58    -13.006385  2 C  pz         
    91    -12.535620  3 O  s                 15    -10.976844  1 N  pz         
   101      7.495019  3 O  pz                55      6.120079  2 C  pz         
    74     -4.258625  2 C  dyy               71     -4.226570  2 C  dxx        

 Vector   67  Occ=0.000000D+00  E= 2.013420D+00
              MO Center=  3.3D-10, -2.1D-09, -6.3D-01, r^2= 2.7D+00
   Bfn.  Coefficient  Atom+Function         Bfn.  Coefficient  Atom+Function  
  ----- ------------  ---------------      ----- ------------  ---------------
    11      3.724927  1 N  py                14     -3.658770  1 N  py         
    57      2.251040  2 C  py                75     -2.034205  2 C  dyz        
    32     -1.418819  1 N  dyz              115     -1.105734  3 O  dyz        
     8     -1.082887  1 N  py                35     -0.874867  1 N  fxxy       
    40     -0.867825  1 N  fyyy              42     -0.834465  1 N  fyzz       

 Vector   68  Occ=0.000000D+00  E= 2.040894D+00
              MO Center= -1.1D-09,  5.1D-10, -6.2D-01, r^2= 2.8D+00
   Bfn.  Coefficient  Atom+Function         Bfn.  Coefficient  Atom+Function  
  ----- ------------  ---------------      ----- ------------  ---------------
    10      3.685309  1 N  px                13     -3.637906  1 N  px         
    56      2.192071  2 C  px                73     -2.053489  2 C  dxz        
    30     -1.400165  1 N  dxz              113     -1.133184  3 O  dxz        
     7     -1.078968  1 N  px                34     -0.871552  1 N  fxxx       
    37     -0.864439  1 N  fxyy              39     -0.836413  1 N  fxzz       

 Vector   69  Occ=0.000000D+00  E= 2.218378D+00
              MO Center=  2.2D-09,  2.0D-09, -1.5D-01, r^2= 3.9D+00
   Bfn.  Coefficient  Atom+Function         Bfn.  Coefficient  Atom+Function  
  ----- ------------  ---------------      ----- ------------  ---------------
    47     29.282764  2 C  s                 48     21.518151  2 C  s          
    91    -19.350536  3 O  s                 70     14.402498  2 C  dzz        
   101     12.147426  3 O  pz                15    -11.324828  1 N  pz         
     5     -8.807216  1 N  s                 76     -7.639220  2 C  dzz        
     4     -7.564070  1 N  s                 12     -6.660675  1 N  pz         

 Vector   70  Occ=0.000000D+00  E= 2.289958D+00
              MO Center= -5.7D-10,  6.0D-09,  9.0D-01, r^2= 2.4D+00
   Bfn.  Coefficient  Atom+Function         Bfn.  Coefficient  Atom+Function  
  ----- ------------  ---------------      ----- ------------  ---------------
   100      4.041092  3 O  py                69     -3.338122  2 C  dyz        
    57     -2.538111  2 C  py                97     -2.224894  3 O  py         
    75     -2.197124  2 C  dyz              121     -1.817030  3 O  dyz        
    11     -1.738558  1 N  py                26     -1.589082  1 N  dyz        
   115     -1.354381  3 O  dyz               94      0.803745  3 O  py         

 Vector   71  Occ=0.000000D+00  E= 2.306498D+00
              MO Center=  5.2D-09, -1.2D-09,  8.8D-01, r^2= 2.5D+00
   Bfn.  Coefficient  Atom+Function         Bfn.  Coefficient  Atom+Function  
  ----- ------------  ---------------      ----- ------------  ---------------
    99      4.021504  3 O  px                67     -3.334414  2 C  dxz        
    56     -2.555319  2 C  px                96     -2.228316  3 O  px         
    73     -2.165845  2 C  dxz              119     -1.814159  3 O  dxz        
    10     -1.791258  1 N  px                24     -1.604796  1 N  dxz        
   113     -1.335232  3 O  dxz               93      0.805543  3 O  px         

 Vector   72  Occ=0.000000D+00  E= 2.346191D+00
              MO Center=  1.7D-09,  1.5D-09, -1.1D+00, r^2= 3.8D+00
   Bfn.  Coefficient  Atom+Function         Bfn.  Coefficient  Atom+Function  
  ----- ------------  ---------------      ----- ------------  ---------------
    48     10.656314  2 C  s                  4     10.022580  1 N  s          
    76      9.977423  2 C  dzz               47     -9.068463  2 C  s          
    28     -6.918144  1 N  dxx               31     -6.923725  1 N  dyy        
     6      6.878375  1 N  s                  3     -6.402223  1 N  s          
   101     -6.308834  3 O  pz                58     -6.044251  2 C  pz         

 Vector   73  Occ=0.000000D+00  E= 2.414526D+00
              MO Center= -2.5D-09, -2.7D-09,  5.6D-01, r^2= 2.2D+00
   Bfn.  Coefficient  Atom+Function         Bfn.  Coefficient  Atom+Function  
  ----- ------------  ---------------      ----- ------------  ---------------
    48     24.199895  2 C  s                 76     15.988148  2 C  dzz        
    70    -12.642812  2 C  dzz               92    -11.472858  3 O  s          
     4      9.530635  1 N  s                 47     -8.095105  2 C  s          
    58      7.333096  2 C  pz                91     -5.669833  3 O  s          
    15      4.995633  1 N  pz               117     -4.858121  3 O  dxx        

 Vector   74  Occ=0.000000D+00  E= 2.635474D+00
              MO Center=  7.7D-10, -6.7D-09,  3.5D-01, r^2= 2.0D+00
   Bfn.  Coefficient  Atom+Function         Bfn.  Coefficient  Atom+Function  
  ----- ------------  ---------------      ----- ------------  ---------------
    69      5.397922  2 C  dyz               97     -3.242522  3 O  py         
    11      2.418943  1 N  py               115      1.938741  3 O  dyz        
    26      1.825923  1 N  dyz               94      0.794726  3 O  py         
   124      0.668896  3 O  fxxy             129      0.666169  3 O  fyyy       
    75     -0.654620  2 C  dyz              131      0.606660  3 O  fyzz       

 Vector   75  Occ=0.000000D+00  E= 2.652578D+00
              MO Center= -6.6D-09,  1.5D-09,  3.5D-01, r^2= 2.0D+00
   Bfn.  Coefficient  Atom+Function         Bfn.  Coefficient  Atom+Function  
  ----- ------------  ---------------      ----- ------------  ---------------
    67      5.411270  2 C  dxz               96     -3.234747  3 O  px         
    10      2.447206  1 N  px               113      1.929825  3 O  dxz        
    24      1.836548  1 N  dxz               93      0.793236  3 O  px         
   123      0.668396  3 O  fxxx             126      0.663444  3 O  fxyy       
    73     -0.651817  2 C  dxz              128      0.605284  3 O  fxzz       

 Vector   76  Occ=0.000000D+00  E= 2.661078D+00
              MO Center=  9.5D-11,  1.5D-10, -5.7D-02, r^2= 8.5D-01
   Bfn.  Coefficient  Atom+Function         Bfn.  Coefficient  Atom+Function  
  ----- ------------  ---------------      ----- ------------  ---------------
    78      2.282709  2 C  fxxy              83     -0.776579  2 C  fyyy       
    80     -0.403942  2 C  fxyy              35      0.239780  1 N  fxxy       
    77      0.133742  2 C  fxxx             124      0.093169  3 O  fxxy       
    40     -0.081243  1 N  fyyy              69     -0.050942  2 C  dyz        
    37     -0.042374  1 N  fxyy             129     -0.039998  3 O  fyyy       

 Vector   77  Occ=0.000000D+00  E= 2.661080D+00
              MO Center=  1.0D-10,  9.9D-11, -5.7D-02, r^2= 8.5D-01
   Bfn.  Coefficient  Atom+Function         Bfn.  Coefficient  Atom+Function  
  ----- ------------  ---------------      ----- ------------  ---------------
    80      2.305020  2 C  fxyy              77     -0.753354  2 C  fxxx       
    78      0.402493  2 C  fxxy              37      0.235544  1 N  fxyy       
    67      0.141973  2 C  dxz               83     -0.135030  2 C  fyyy       
   126      0.117886  3 O  fxyy              96     -0.085948  3 O  px         
    34     -0.085509  1 N  fxxx             113      0.050361  3 O  dxz        

 Vector   78  Occ=0.000000D+00  E= 2.882191D+00
              MO Center= -5.3D-11,  1.0D-10, -1.7D-01, r^2= 1.3D+00
   Bfn.  Coefficient  Atom+Function         Bfn.  Coefficient  Atom+Function  
  ----- ------------  ---------------      ----- ------------  ---------------
    84     -1.864319  2 C  fyyz              79      1.783755  2 C  fxxz       
    36     -0.460465  1 N  fxxz              41      0.446392  1 N  fyyz       
    81     -0.425018  2 C  fxyz              46     -0.414750  2 C  s          
    55      0.413816  2 C  pz               114      0.415838  3 O  dyy        
    70     -0.404712  2 C  dzz               47      0.384967  2 C  s          

 Vector   79  Occ=0.000000D+00  E= 2.882261D+00
              MO Center=  2.8D-11,  2.0D-11, -1.7D-01, r^2= 1.3D+00
   Bfn.  Coefficient  Atom+Function         Bfn.  Coefficient  Atom+Function  
  ----- ------------  ---------------      ----- ------------  ---------------
    81      3.650041  2 C  fxyz              38     -0.906762  1 N  fxyz       
   112     -0.746503  3 O  dxy               23      0.617079  1 N  dxy        
   127     -0.278447  3 O  fxyz              66      0.267297  2 C  dxy        
    60     -0.243711  2 C  dxy               79      0.212636  2 C  fxxz       
    84     -0.212612  2 C  fyyz              29     -0.210714  1 N  dxy        

 Vector   80  Occ=0.000000D+00  E= 2.935630D+00
              MO Center=  5.5D-09,  5.2D-09,  1.5D+00, r^2= 2.1D+00
   Bfn.  Coefficient  Atom+Function         Bfn.  Coefficient  Atom+Function  
  ----- ------------  ---------------      ----- ------------  ---------------
    48     19.654181  2 C  s                  5    -10.659720  1 N  s          
    92      9.716897  3 O  s                 90      9.011242  3 O  s          
    47     -8.890295  2 C  s                117     -5.932323  3 O  dxx        
   120     -5.934166  3 O  dyy               76      5.865156  2 C  dzz        
    89     -5.489353  3 O  s                122     -5.130091  3 O  dzz        

 Vector   81  Occ=0.000000D+00  E= 3.066022D+00
              MO Center=  7.4D-10, -4.6D-09, -3.9D-01, r^2= 1.3D+00
   Bfn.  Coefficient  Atom+Function         Bfn.  Coefficient  Atom+Function  
  ----- ------------  ---------------      ----- ------------  ---------------
    63      1.609481  2 C  dyz               85     -1.402341  2 C  fyzz       
    69     -1.214032  2 C  dyz               14     -1.079721  1 N  py         
    32     -0.922279  1 N  dyz              100      0.872950  3 O  py         
    26      0.794794  1 N  dyz               75     -0.775844  2 C  dyz        
    42     -0.764978  1 N  fyzz              54      0.660967  2 C  py         

 Vector   82  Occ=0.000000D+00  E= 3.071712D+00
              MO Center=  1.7D-10, -4.8D-10,  1.2D-02, r^2= 8.7D-01
   Bfn.  Coefficient  Atom+Function         Bfn.  Coefficient  Atom+Function  
  ----- ------------  ---------------      ----- ------------  ---------------
    47      3.440134  2 C  s                 68     -1.852334  2 C  dyy        
    46     -1.817969  2 C  s                 59     -1.056330  2 C  dxx        
    62      0.995633  2 C  dyy               70     -0.592254  2 C  dzz        
    65     -0.383387  2 C  dxx               48      0.327703  2 C  s          
    79     -0.314283  2 C  fxxz              98      0.301294  3 O  pz         

 Vector   83  Occ=0.000000D+00  E= 3.071874D+00
              MO Center= -7.2D-10,  8.1D-10,  1.2D-02, r^2= 8.7D-01
   Bfn.  Coefficient  Atom+Function         Bfn.  Coefficient  Atom+Function  
  ----- ------------  ---------------      ----- ------------  ---------------
    60      2.060489  2 C  dxy               66     -1.474920  2 C  dxy        
    81      0.573520  2 C  fxyz             127     -0.275661  3 O  fxyz       
    38      0.253924  1 N  fxyz             118      0.243186  3 O  dxy        
    72      0.217182  2 C  dxy               23      0.153147  1 N  dxy        
    29      0.136596  1 N  dxy               59      0.120363  2 C  dxx        

 Vector   84  Occ=0.000000D+00  E= 3.085323D+00
              MO Center= -8.3D-09, -5.4D-11, -3.8D-01, r^2= 1.3D+00
   Bfn.  Coefficient  Atom+Function         Bfn.  Coefficient  Atom+Function  
  ----- ------------  ---------------      ----- ------------  ---------------
    61      1.618572  2 C  dxz               82     -1.373940  2 C  fxzz       
    67     -1.171578  2 C  dxz               13     -1.090057  1 N  px         
    30     -0.921654  1 N  dxz               99      0.866231  3 O  px         
    24      0.796188  1 N  dxz               73     -0.784736  2 C  dxz        
    39     -0.764149  1 N  fxzz              53      0.693135  2 C  px         

 Vector   85  Occ=0.000000D+00  E= 3.100327D+00
              MO Center=  1.1D-08,  6.8D-09, -9.9D-02, r^2= 1.9D+00
   Bfn.  Coefficient  Atom+Function         Bfn.  Coefficient  Atom+Function  
  ----- ------------  ---------------      ----- ------------  ---------------
    47     40.070337  2 C  s                 46    -21.021730  2 C  s          
    65    -13.086030  2 C  dxx               68    -12.954471  2 C  dyy        
    70     -6.842027  2 C  dzz               48      5.132847  2 C  s          
    98      3.357003  3 O  pz                 4     -3.042932  1 N  s          
    49      2.500947  2 C  s                116     -2.047358  3 O  dzz        

 Vector   86  Occ=0.000000D+00  E= 3.287846D+00
              MO Center= -4.8D-10, -1.0D-09,  4.7D-02, r^2= 1.4D+00
   Bfn.  Coefficient  Atom+Function         Bfn.  Coefficient  Atom+Function  
  ----- ------------  ---------------      ----- ------------  ---------------
    54      4.285832  2 C  py                78     -2.504961  2 C  fxxy       
    83     -2.494904  2 C  fyyy              85     -1.627482  2 C  fyzz       
   100     -1.381341  3 O  py               121      1.281628  3 O  dyz        
    14     -0.881283  1 N  py                32     -0.818373  1 N  dyz        
    57      0.655144  2 C  py                69      0.546049  2 C  dyz        

 Vector   87  Occ=0.000000D+00  E= 3.296921D+00
              MO Center= -7.1D-10, -3.6D-10,  4.8D-02, r^2= 1.4D+00
   Bfn.  Coefficient  Atom+Function         Bfn.  Coefficient  Atom+Function  
  ----- ------------  ---------------      ----- ------------  ---------------
    53      4.283872  2 C  px                77     -2.498742  2 C  fxxx       
    80     -2.488791  2 C  fxyy              82     -1.618754  2 C  fxzz       
    99     -1.390224  3 O  px               119      1.286840  3 O  dxz        
    13     -0.881062  1 N  px                30     -0.816222  1 N  dxz        
    56      0.661150  2 C  px                67      0.554797  2 C  dxz        

 Vector   88  Occ=0.000000D+00  E= 3.448813D+00
              MO Center= -3.5D-09, -3.3D-09, -2.0D-01, r^2= 2.1D+00
   Bfn.  Coefficient  Atom+Function         Bfn.  Coefficient  Atom+Function  
  ----- ------------  ---------------      ----- ------------  ---------------
    47     22.224107  2 C  s                 55    -20.125835  2 C  pz         
     4    -15.970265  1 N  s                 12    -14.807550  1 N  pz         
     5     -9.981991  1 N  s                 70      7.705842  2 C  dzz        
    15     -6.582425  1 N  pz                27     -5.474149  1 N  dzz        
    92      5.015855  3 O  s                 91      4.918130  3 O  s          

 Vector   89  Occ=0.000000D+00  E= 3.654433D+00
              MO Center= -2.2D-10, -2.9D-09,  8.2D-02, r^2= 1.6D+00
   Bfn.  Coefficient  Atom+Function         Bfn.  Coefficient  Atom+Function  
  ----- ------------  ---------------      ----- ------------  ---------------
    85      3.880407  2 C  fyzz             115      1.767534  3 O  dyz        
    26     -1.718367  1 N  dyz               97     -1.496378  3 O  py         
    57     -1.196125  2 C  py               100      1.109301  3 O  py         
    11     -0.894280  1 N  py                63      0.850453  2 C  dyz        
   121     -0.850459  3 O  dyz               69     -0.692716  2 C  dyz        

 Vector   90  Occ=0.000000D+00  E= 3.672146D+00
              MO Center= -3.2D-09,  1.4D-10,  7.7D-02, r^2= 1.6D+00
   Bfn.  Coefficient  Atom+Function         Bfn.  Coefficient  Atom+Function  
  ----- ------------  ---------------      ----- ------------  ---------------
    82      3.916388  2 C  fxzz             113      1.777028  3 O  dxz        
    24     -1.718553  1 N  dxz               96     -1.505743  3 O  px         
    56     -1.196876  2 C  px                99      1.100620  3 O  px         
    10     -0.899394  1 N  px               119     -0.843985  3 O  dxz        
    61      0.826856  2 C  dxz               67     -0.663346  2 C  dxz        

 Vector   91  Occ=0.000000D+00  E= 3.731844D+00
              MO Center=  2.9D-09,  2.3D-09, -2.1D-01, r^2= 1.7D+00
   Bfn.  Coefficient  Atom+Function         Bfn.  Coefficient  Atom+Function  
  ----- ------------  ---------------      ----- ------------  ---------------
    48     25.592301  2 C  s                 70    -18.190587  2 C  dzz        
    46    -17.704938  2 C  s                 47     17.745007  2 C  s          
     5    -14.068292  1 N  s                 76     12.399108  2 C  dzz        
    65     -8.121999  2 C  dxx               68     -8.124858  2 C  dyy        
    92     -5.175412  3 O  s                 98     -4.959189  3 O  pz         

 Vector   92  Occ=0.000000D+00  E= 3.946828D+00
              MO Center=  3.1D-11,  3.0D-11, -1.2D+00, r^2= 6.3D-01
   Bfn.  Coefficient  Atom+Function         Bfn.  Coefficient  Atom+Function  
  ----- ------------  ---------------      ----- ------------  ---------------
    37      2.372433  1 N  fxyy              34     -0.734062  1 N  fxxx       
    80     -0.418095  2 C  fxyy              35      0.407823  1 N  fxxy       
    77      0.147978  2 C  fxxx              40     -0.139238  1 N  fyyy       
    10     -0.097249  1 N  px                78     -0.075140  2 C  fxxy       
   126     -0.072455  3 O  fxyy              13      0.053498  1 N  px         

 Vector   93  Occ=0.000000D+00  E= 3.946841D+00
              MO Center=  2.9D-11,  4.3D-11, -1.2D+00, r^2= 6.3D-01
   Bfn.  Coefficient  Atom+Function         Bfn.  Coefficient  Atom+Function  
  ----- ------------  ---------------      ----- ------------  ---------------
    35      2.285624  1 N  fxxy              40     -0.820854  1 N  fyyy       
    78     -0.431266  2 C  fxxy              37     -0.412864  1 N  fxyy       
    34      0.134194  1 N  fxxx              83      0.134796  2 C  fyyy       
    11      0.099482  1 N  py                80      0.074373  2 C  fxyy       
   124     -0.071721  3 O  fxxy              14     -0.054988  1 N  py         

 Vector   94  Occ=0.000000D+00  E= 4.127225D+00
              MO Center= -1.5D-10, -2.1D-10, -3.4D-01, r^2= 2.0D+00
   Bfn.  Coefficient  Atom+Function         Bfn.  Coefficient  Atom+Function  
  ----- ------------  ---------------      ----- ------------  ---------------
    47     20.669395  2 C  s                 12     -8.923338  1 N  pz         
    70      8.404204  2 C  dzz               91     -8.189312  3 O  s          
     5      6.078592  1 N  s                101      5.860232  3 O  pz         
    90     -5.696886  3 O  s                 27     -5.380779  1 N  dzz        
    48     -4.640331  2 C  s                  3     -4.194190  1 N  s          

 Vector   95  Occ=0.000000D+00  E= 4.365195D+00
              MO Center=  6.3D-11,  4.4D-10, -8.2D-01, r^2= 1.3D+00
   Bfn.  Coefficient  Atom+Function         Bfn.  Coefficient  Atom+Function  
  ----- ------------  ---------------      ----- ------------  ---------------
     4     11.678350  1 N  s                 47    -10.212536  2 C  s          
     5      7.473575  1 N  s                 70     -5.245099  2 C  dzz        
    48     -5.162237  2 C  s                 15      4.742504  1 N  pz         
    58      4.329173  2 C  pz                 3     -3.345520  1 N  s          
    91      3.069160  3 O  s                 12      2.667521  1 N  pz         

[...]
     2   0 0 2    -14.982541    -48.880151    -43.202719     77.100329

  int_init: cando_txs set to always be  F
                                NWChem TDDFT Module
                                -------------------


            General Information
            -------------------
           No. of orbitals :     264
            Alpha orbitals :     132
             Beta orbitals :     132
        Alpha frozen cores :       0
         Beta frozen cores :       0
     Alpha frozen virtuals :       0
      Beta frozen virtuals :       0
         Spin multiplicity :       2
    Number of AO functions :     132
        Use of symmetry is : off
      Symmetry adaption is : off
         Schwarz screening :  0.10D-07

              XC Information
              --------------
              Hartree-Fock (Exact) Exchange   1.00          
              LC-wPBE(h)Exchange Functional   1.00          
     Perdew 1991 LDA Correlation Functional   1.00 local    
    PerdewBurkeErnz. Correlation Functional   1.00 non-local
           Alpha           :  0.00
           Beta            :  1.00
           Gamma           :  0.35

             TDDFT Information
             -----------------
          Calculation type : Tamm-Dancoff TDDFT
         Wavefunction type : Unrestricted
          No. of electrons :      21
           Alpha electrons :      11
            Beta electrons :      10
              No. of roots :      10
          Max subspacesize :    6000
            Max iterations :     100
               Target root :       1
           Target symmetry : none
      Symmetry restriction : off
                 Algorithm : Optimal
        Davidson threshold :  0.10D-03

            Memory Information
            ------------------
          Available GA space size is       52428765152 doubles
          Available MA space size is        4194409396 doubles
          Length of a trial vector is         1331    1220
          Algorithm : Incore multiple tensor contraction
          Estimated peak GA usage is          51623734 doubles
          Estimated peak MA usage is             51000 doubles

   10 smallest eigenvalue differences (eV) 
--------------------------------------------------------
  No. Spin  Occ  Vir  Irrep   E(Occ)    E(Vir)   E(Diff)
--------------------------------------------------------
    1    2   10   11 a        -0.427    -0.132     8.024
    2    2    9   11 a        -0.535    -0.132    10.965
    3    2    8   11 a        -0.591    -0.132    12.493
    4    2   10   12 a        -0.427     0.045    12.834
    5    2    7   11 a        -0.618    -0.132    13.216
    6    1   11   12 a        -0.442     0.044    13.219
    7    2   10   13 a        -0.427     0.094    14.178
    8    1   10   12 a        -0.484     0.044    14.347
    9    2   10   14 a        -0.427     0.103    14.406
   10    2   10   15 a        -0.427     0.104    14.458
--------------------------------------------------------

  Entering Davidson iterations
  Unrestricted

  Iter   NTrls   NConv    DeltaV     DeltaE      Time   
  ----  ------  ------  ---------  ---------  --------- 
    1     10       0     0.27E+00   0.10+100       48.9
    2     20       0     0.99E-01   0.65E-01       52.0
    3     30       0     0.16E+00   0.47E-01       52.4
    4     40       0     0.21E+00   0.29E-01       52.4
    5     50       1     0.61E-01   0.29E-01       52.3
    6     59       2     0.15E-01   0.26E-02       49.4
    7     67       3     0.98E-02   0.27E-03       45.6
    8     74       5     0.58E-01   0.69E-02       42.7
    9     79       6     0.20E-01   0.12E-02       36.5
   10     83       8     0.63E-02   0.17E-03       33.0
   11     85       9     0.17E-02   0.13E-04       26.7
   12     86       9     0.50E-03   0.88E-06       23.7
   13     87       9     0.17E-03   0.81E-07       23.6
   14     88      10     0.81E-04   0.80E-08       23.7
  ----  ------  ------  ---------  ---------  --------- 
  Convergence criterion met

  Ground state a        -167.934175012744 a.u.
  <S2> =   0.7658

  ----------------------------------------------------------------------------
  Root   1         a              0.010086493 a.u.                0.2745 eV 
  <S2> =   0.7760
  ----------------------------------------------------------------------------
     Transition Moments    X  0.00000   Y  0.00000   Z -0.00000
     Transition Moments   XX  0.05959  XY  0.51019  XZ -0.00000
     Transition Moments   YY -0.05959  YZ -0.00000  ZZ -0.00000
     Dipole Oscillator Strength                    0.0000000000
     Electric Quadrupole                           0.0000000000
     Magnetic Dipole                               0.0000000905
     Total Oscillator Strength                     0.0000000905

     Occ.    7 beta  a   ---  Virt.   11 beta  a       -0.07109
     Occ.    7 beta  a   ---  Virt.   18 beta  a        0.06253
     Occ.   10 beta  a   ---  Virt.   11 beta  a       -0.99286
  ----------------------------------------------------------------------------
  Root   2         a              0.116462107 a.u.                3.1691 eV 
  <S2> =   0.7787
  ----------------------------------------------------------------------------
     Transition Moments    X  0.01490   Y  0.25596   Z  0.00000
     Transition Moments   XX -0.00000  XY -0.00000  XZ -0.05049
     Transition Moments   YY -0.00000  YZ -0.86753  ZZ  0.00000
     Dipole Oscillator Strength                    0.0051040723
     Electric Quadrupole                           0.0000000064
     Magnetic Dipole                               0.0000003248
     Total Oscillator Strength                     0.0051044035

     Occ.    9 alpha a   ---  Virt.   15 alpha a       -0.07581
     Occ.    9 beta  a   ---  Virt.   11 beta  a       -0.98458
     Occ.    9 beta  a   ---  Virt.   18 beta  a        0.11711
     Occ.    9 beta  a   ---  Virt.   24 beta  a       -0.05783
  ----------------------------------------------------------------------------
  Root   3         a              0.198826931 a.u.                5.4104 eV 
  <S2> =   0.9717
  ----------------------------------------------------------------------------
     Transition Moments    X -0.00000   Y  0.00000   Z -0.00001
     Transition Moments   XX  0.00992  XY  0.08494  XZ -0.00000
     Transition Moments   YY -0.00992  YZ  0.00000  ZZ -0.00002
     Dipole Oscillator Strength                    0.0000000000
     Electric Quadrupole                           0.0000000003
     Magnetic Dipole                               0.0000000001
     Total Oscillator Strength                     0.0000000004

     Occ.   10 alpha a   ---  Virt.   17 alpha a       -0.06255
     Occ.   11 alpha a   ---  Virt.   15 alpha a       -0.10370
     Occ.    7 beta  a   ---  Virt.   11 beta  a       -0.94275
     Occ.    7 beta  a   ---  Virt.   18 beta  a       -0.08913
     Occ.   10 beta  a   ---  Virt.   11 beta  a        0.07386
     Occ.   10 beta  a   ---  Virt.   18 beta  a        0.27443
  ----------------------------------------------------------------------------
  Root   4         a              0.201820772 a.u.                5.4918 eV 
  <S2> =   0.8632
  ----------------------------------------------------------------------------
     Transition Moments    X -0.00000   Y  0.00000   Z -0.46041
     Transition Moments   XX  0.00422  XY  0.00904  XZ -0.00000
     Transition Moments   YY  0.15907  YZ  0.00000  ZZ -0.71944
     Dipole Oscillator Strength                    0.0285208109
     Electric Quadrupole                           0.0000000096
     Magnetic Dipole                               0.0000000000
     Total Oscillator Strength                     0.0285208205

     Occ.    7 alpha a   ---  Virt.   15 alpha a        0.12219
     Occ.    8 alpha a   ---  Virt.   17 alpha a        0.07981
     Occ.   10 alpha a   ---  Virt.   14 alpha a        0.06800
     Occ.   10 alpha a   ---  Virt.   15 alpha a       -0.22034
     Occ.   11 alpha a   ---  Virt.   17 alpha a       -0.15528
     Occ.    7 beta  a   ---  Virt.   16 beta  a        0.05175
     Occ.    8 beta  a   ---  Virt.   11 beta  a       -0.92939
     Occ.    8 beta  a   ---  Virt.   18 beta  a       -0.07250
     Occ.   10 beta  a   ---  Virt.   16 beta  a       -0.12596
  ----------------------------------------------------------------------------
  Root   5         a              0.247028221 a.u.                6.7220 eV 
  <S2> =   2.7141
  ----------------------------------------------------------------------------
     Transition Moments    X -0.00000   Y  0.00000   Z  0.03715
     Transition Moments   XX -0.02668  XY  0.00082  XZ  0.00000
     Transition Moments   YY -0.01257  YZ -0.00000  ZZ -0.04151
     Dipole Oscillator Strength                    0.0002272936
     Electric Quadrupole                           0.0000000000
     Magnetic Dipole                               0.0000000000
     Total Oscillator Strength                     0.0002272936

     Occ.    8 alpha a   ---  Virt.   17 alpha a        0.06532
     Occ.   10 alpha a   ---  Virt.   15 alpha a        0.10709
     Occ.   11 alpha a   ---  Virt.   16 alpha a       -0.08973
     Occ.   11 alpha a   ---  Virt.   17 alpha a        0.61301
     Occ.    7 beta  a   ---  Virt.   16 beta  a       -0.06426
     Occ.   10 beta  a   ---  Virt.   15 beta  a        0.15485
     Occ.   10 beta  a   ---  Virt.   16 beta  a       -0.74507
  ----------------------------------------------------------------------------
  Root   6         a              0.262908959 a.u.                7.1541 eV 
  <S2> =   2.0042
  ----------------------------------------------------------------------------
     Transition Moments    X -0.00000   Y -0.00000   Z  0.00000
     Transition Moments   XX  0.00054  XY  0.00460  XZ  0.00000
     Transition Moments   YY -0.00054  YZ  0.00000  ZZ  0.00000
     Dipole Oscillator Strength                    0.0000000000
     Electric Quadrupole                           0.0000000000
     Magnetic Dipole                               0.0000000015
     Total Oscillator Strength                     0.0000000015

     Occ.   10 alpha a   ---  Virt.   17 alpha a       -0.05011
     Occ.   11 alpha a   ---  Virt.   14 alpha a        0.40630
     Occ.   11 alpha a   ---  Virt.   15 alpha a       -0.88270
     Occ.    7 beta  a   ---  Virt.   11 beta  a        0.15472
     Occ.   10 beta  a   ---  Virt.   18 beta  a        0.13630
  ----------------------------------------------------------------------------
  Root   7         a              0.277109402 a.u.                7.5405 eV 
  <S2> =   2.4460
  ----------------------------------------------------------------------------
     Transition Moments    X -0.09808   Y  0.00571   Z -0.00000
     Transition Moments   XX -0.00000  XY  0.00000  XZ  0.49777
     Transition Moments   YY -0.00000  YZ -0.02899  ZZ -0.00000
     Dipole Oscillator Strength                    0.0017830078
     Electric Quadrupole                           0.0000000282
     Magnetic Dipole                               0.0000002211
     Total Oscillator Strength                     0.0017832570

     Occ.   11 alpha a   ---  Virt.   12 alpha a       -0.31786
     Occ.   11 alpha a   ---  Virt.   13 alpha a       -0.08348
     Occ.   11 alpha a   ---  Virt.   19 alpha a        0.14957
     Occ.   10 beta  a   ---  Virt.   12 beta  a        0.83454
     Occ.   10 beta  a   ---  Virt.   13 beta  a        0.19880
     Occ.   10 beta  a   ---  Virt.   19 beta  a       -0.32618
     Occ.   10 beta  a   ---  Virt.   20 beta  a       -0.09498
  ----------------------------------------------------------------------------
  Root   8         a              0.277845373 a.u.                7.5606 eV 
  <S2> =   0.9137
  ----------------------------------------------------------------------------
     Transition Moments    X  0.00730   Y  0.12538   Z  0.00000
     Transition Moments   XX  0.00000  XY -0.00000  XZ  0.04537
     Transition Moments   YY -0.00000  YZ  0.77934  ZZ  0.00000
     Dipole Oscillator Strength                    0.0029216471
     Electric Quadrupole                           0.0000000696
     Magnetic Dipole                               0.0000016390
     Total Oscillator Strength                     0.0029233557

     Occ.    6 alpha a   ---  Virt.   15 alpha a       -0.07340
     Occ.    9 alpha a   ---  Virt.   15 alpha a        0.06500
     Occ.   10 alpha a   ---  Virt.   12 alpha a        0.05037
     Occ.    6 beta  a   ---  Virt.   11 beta  a        0.97228
     Occ.    6 beta  a   ---  Virt.   18 beta  a        0.14797
     Occ.    9 beta  a   ---  Virt.   18 beta  a       -0.09765
  ----------------------------------------------------------------------------
  Root   9         a              0.293950607 a.u.                7.9988 eV 
  <S2> =   1.0845
  ----------------------------------------------------------------------------
     Transition Moments    X -0.21677   Y  0.01262   Z -0.00000
     Transition Moments   XX  0.00000  XY  0.00000  XZ  1.13832
     Transition Moments   YY -0.00000  YZ -0.06625  ZZ -0.00000
     Dipole Oscillator Strength                    0.0092392925
     Electric Quadrupole                           0.0000001759
     Magnetic Dipole                               0.0000012255
     Total Oscillator Strength                     0.0092406939

     Occ.   11 alpha a   ---  Virt.   12 alpha a        0.84440
     Occ.   11 alpha a   ---  Virt.   13 alpha a        0.19610
     Occ.   11 alpha a   ---  Virt.   19 alpha a       -0.30761
     Occ.   11 alpha a   ---  Virt.   20 alpha a       -0.07675
     Occ.   10 beta  a   ---  Virt.   12 beta  a        0.34877
     Occ.   10 beta  a   ---  Virt.   13 beta  a        0.06894
     Occ.   10 beta  a   ---  Virt.   19 beta  a       -0.09325
  ----------------------------------------------------------------------------
  Root  10         a              0.299094298 a.u.                8.1388 eV 
  <S2> =   0.8206
  ----------------------------------------------------------------------------
     Transition Moments    X -0.00000   Y  0.00000   Z  0.06411
     Transition Moments   XX -0.05236  XY  0.00197  XZ  0.00000
     Transition Moments   YY -0.01857  YZ -0.00000  ZZ -0.10381
     Dipole Oscillator Strength                    0.0008194258
     Electric Quadrupole                           0.0000000003
     Magnetic Dipole                               0.0000000000
     Total Oscillator Strength                     0.0008194260

     Occ.    7 alpha a   ---  Virt.   15 alpha a        0.05480
     Occ.   10 alpha a   ---  Virt.   14 alpha a       -0.32549
     Occ.   10 alpha a   ---  Virt.   15 alpha a        0.71109
     Occ.   11 alpha a   ---  Virt.   16 alpha a        0.10068
     Occ.   11 alpha a   ---  Virt.   17 alpha a       -0.51993
     Occ.    8 beta  a   ---  Virt.   11 beta  a       -0.05473
     Occ.   10 beta  a   ---  Virt.   15 beta  a        0.08325
     Occ.   10 beta  a   ---  Virt.   16 beta  a       -0.29668

              Target root =      1
          Target symmetry = none
      Ground state energy =   -167.934175012744
        Excitation energy =      0.010086493402
     Excited state energy =   -167.924088519342

  stored tddft:energy   -167.92408851934226     

 Task  times  cpu:      506.8s     wall:      594.7s


                                NWChem Input Module
                                -------------------


 Summary of allocated global arrays
-----------------------------------
  No active global arrays


MA_summarize_allocated_blocks: starting scan ...
heap block 'gridpts', handle 98, address 0x12cd11a8:
	type of elements:		double precision
	number of elements:		1048468711
	address of client space:	0x12cd1200
	index for client space:		11271575
	total number of bytes:		8387749784
MA_summarize_allocated_blocks: scan completed: 1 heap block, 0 stack blocks
MA usage statistics:

	allocation statistics:
					      heap	     stack
					      ----	     -----
	current number of blocks	         1	         0
	maximum number of blocks	        18	        53
	current total bytes		8387749784	         0
	maximum total bytes		8389822656	  23666632
	maximum total K-bytes		   8389823	     23667
	maximum total M-bytes		      8390	        24


                                     CITATION
                                     --------
                Please cite the following reference when publishing
                           results obtained with NWChem:

          E. Apra, E. J. Bylaska, W. A. de Jong, N. Govind, K. Kowalski,
       T. P. Straatsma, M. Valiev, H. J. J. van Dam, Y. Alexeev, J. Anchell,
       V. Anisimov, F. W. Aquino, R. Atta-Fynn, J. Autschbach, N. P. Bauman,
     J. C. Becca, D. E. Bernholdt, K. Bhaskaran-Nair, S. Bogatko, P. Borowski,
         J. Boschen, J. Brabec, A. Bruner, E. Cauet, Y. Chen, G. N. Chuev,
      C. J. Cramer, J. Daily, M. J. O. Deegan, T. H. Dunning Jr., M. Dupuis,
   K. G. Dyall, G. I. Fann, S. A. Fischer, A. Fonari, H. Fruchtl, L. Gagliardi,
      J. Garza, N. Gawande, S. Ghosh, K. Glaesemann, A. W. Gotz, J. Hammond,
       V. Helms, E. D. Hermes, K. Hirao, S. Hirata, M. Jacquelin, L. Jensen,
   B. G. Johnson, H. Jonsson, R. A. Kendall, M. Klemm, R. Kobayashi, V. Konkov,
      S. Krishnamoorthy, M. Krishnan, Z. Lin, R. D. Lins, R. J. Littlefield,
      A. J. Logsdail, K. Lopata, W. Ma, A. V. Marenich, J. Martin del Campo,
   D. Mejia-Rodriguez, J. E. Moore, J. M. Mullin, T. Nakajima, D. R. Nascimento,
    J. A. Nichols, P. J. Nichols, J. Nieplocha, A. Otero-de-la-Roza, B. Palmer,
    A. Panyala, T. Pirojsirikul, B. Peng, R. Peverati, J. Pittner, L. Pollack,
   R. M. Richard, P. Sadayappan, G. C. Schatz, W. A. Shelton, D. W. Silverstein,
   D. M. A. Smith, T. A. Soares, D. Song, M. Swart, H. L. Taylor, G. S. Thomas,
            V. Tipparaju, D. G. Truhlar, K. Tsemekhman, T. Van Voorhis,
      A. Vazquez-Mayagoitia, P. Verma, O. Villa, A. Vishnu, K. D. Vogiatzis,
        D. Wang, J. H. Weare, M. J. Williamson, T. L. Windus, K. Wolinski,
        A. T. Wong, Q. Wu, C. Yang, Q. Yu, M. Zacharias, Z. Zhang, Y. Zhao,
                                and R. J. Harrison
                        "NWChem: Past, present, and future
                         J. Chem. Phys. 152, 184102 (2020)
                               doi:10.1063/5.0004997

                                      AUTHORS
                                      -------
  E. Apra, E. J. Bylaska, N. Govind, K. Kowalski, M. Valiev, D. Mejia-Rodriguez,
       A. Kunitsa, N. P. Bauman, A. Panyala, W. A. de Jong, T. P. Straatsma,
   H. J. J. van Dam, D. Wang, T. L. Windus, J. Hammond, J. Autschbach, A. Woods,
    K. Bhaskaran-Nair, J. Brabec, K. Lopata, S. A. Fischer, S. Krishnamoorthy,
     M. Jacquelin, W. Ma, M. Klemm, O. Villa, Y. Chen, V. Anisimov, F. Aquino,
     S. Hirata, M. T. Hackler, E. Hermes, L. Jensen, J. E. Moore, J. C. Becca,
      V. Konjkov, T. Risthaus, M. Malagoli, A. Marenich, A. Otero-de-la-Roza,
        J. Mullin, P. Nichols, R. Peverati, J. Pittner, Y. Zhao, P.-D. Fan,
        A. Fonari, M. J. Williamson, R. J. Harrison, J. R. Rehr, M. Dupuis,
     D. Silverstein, D. M. A. Smith, J. Nieplocha, V. Tipparaju, M. Krishnan,
     B. E. Van Kuiken, A. Vazquez-Mayagoitia, M. Swart, Q. Wu, T. Van Voorhis,
     A. A. Auer, M. Nooijen, L. D. Crosby, E. Brown, G. Cisneros, G. I. Fann,
   H. Fruchtl, J. Garza, K. Hirao, R. A. Kendall, J. A. Nichols, K. Tsemekhman,
    K. Wolinski, J. Anchell, D. E. Bernholdt, P. Borowski, T. Clark, D. Clerc,
   H. Dachsel, M. J. O. Deegan, K. Dyall, D. Elwood, E. Glendening, M. Gutowski,
   A. C. Hess, J. Jaffe, B. G. Johnson, J. Ju, R. Kobayashi, R. Kutteh, Z. Lin,
   R. Littlefield, X. Long, B. Meng, T. Nakajima, S. Niu, L. Pollack, M. Rosing,
   K. Glaesemann, G. Sandrone, M. Stave, H. Taylor, G. Thomas, J. H. van Lenthe,
                               A. T. Wong, Z. Zhang.

 Total times  cpu:      506.8s     wall:      595.1s
