 argument  1 = /home/aditisingh4812/nw_chem/nwchem-run/nwchem-run/tddft/closed/lcwpbe/geom-MOL/aminobenzonitrile.nw
                                         
                                         


             Northwest Computational Chemistry Package (NWChem) 7.2.3
             --------------------------------------------------------


                    Environmental Molecular Sciences Laboratory
                       Pacific Northwest National Laboratory
                                Richland, WA 99352

                              Copyright (c) 1994-2022
                       Pacific Northwest National Laboratory
                            Battelle Memorial Institute

             NWChem is an open-source computational chemistry package
                        distributed under the terms of the
                      Educational Community License (ECL) 2.0
             A copy of the license is included with this distribution
                              in the LICENSE.TXT file

                                  ACKNOWLEDGMENT
                                  --------------

            This software and its documentation were developed at the
            EMSL at Pacific Northwest National Laboratory, a multiprogram
            national laboratory, operated for the U.S. Department of Energy
            by Battelle under Contract Number DE-AC05-76RL01830. Support
            for this work was provided by the Department of Energy Office
            of Biological and Environmental Research, Office of Basic
            Energy Sciences, and the Office of Advanced Scientific Computing.


           Job information
           ---------------

    hostname        = p20
    program         = /home/aditisingh4812/nw_chem/nwchem-7.2.3-release.revision-d690e065-srconly.2024-08-27/nwchem-7.2.3/bin/LINUX64/nwchem
    date            = Mon Apr  7 19:19:06 2025

    compiled        = Mon_Apr_07_18:51:54_2025
    source          = /home/aditisingh4812/nw_chem/nwchem-7.2.3-release.revision-d690e065-srconly.2024-08-27/nwchem-7.2.3
    nwchem branch   = 7.2.3
    nwchem revision = d690e065
    ga revision     = 5.8.0
    use scalapack   = F
    input           = /home/aditisingh4812/nw_chem/nwchem-run/nwchem-run/tddft/closed/lcwpbe/geom-MOL/aminobenzonitrile.nw
    prefix          = aminobenzonitrile.
    data base       = ./aminobenzonitrile.db
    status          = startup
    nproc           =       48
    time left       =     -1s



           Memory information
           ------------------

    heap     = ********** doubles = 100000.0 Mbytes
    stack    = ********** doubles = 100000.0 Mbytes
    global   = ********** doubles = 100000.0 Mbytes (distinct from heap & stack)
    total    = ********** doubles = 300000.0 Mbytes
    verify   = yes
    hardfail = no 


           Directory information
           ---------------------

  0 permanent = .
  0 scratch   = .




                                NWChem Input Module
                                -------------------



 Scaling coordinates for geometry "geometry" by  1.889725989
 (inverse scale =  0.529177249)



                             Geometry "geometry" -> ""
                             -------------------------

 Output coordinates in angstroms (scale by  1.889725989 to convert to a.u.)

  No.       Tag          Charge          X              Y              Z
 ---- ---------------- ---------- -------------- -------------- --------------
    1 C                    6.0000     0.00000000     0.00000000     1.71185321
    2 C                    6.0000     1.20562300     0.00000000     0.99550421
    3 C                    6.0000    -1.20562300     0.00000000     0.99550421
    4 C                    6.0000     0.00000000     0.00000000    -1.09664979
    5 C                    6.0000     1.20309100     0.00000000    -0.38672779
    6 C                    6.0000    -1.20309100     0.00000000    -0.38672779
    7 C                    6.0000     0.00000000     0.00000000    -2.52197579
    8 N                    7.0000     0.00000000     0.00000000     3.07739221
    9 N                    7.0000     0.00000000     0.00000000    -3.68512279
   10 H                    1.0000     2.14198000     0.00000000     1.53082721
   11 H                    1.0000    -2.14198000     0.00000000     1.53082721
   12 H                    1.0000     2.13631200     0.00000000    -0.92541979
   13 H                    1.0000    -2.13631200     0.00000000    -0.92541979
   14 H                    1.0000    -0.85820400     0.00000000     3.58930821
   15 H                    1.0000     0.85820400     0.00000000     3.58930821

      Atomic Mass 
      ----------- 

      C                 12.000000
      N                 14.003070
      H                  1.007825


 Effective nuclear repulsion energy (a.u.)     376.8273305869

            Nuclear Dipole moment (a.u.) 
            ----------------------------
        X                 Y               Z
 ---------------- ---------------- ----------------
     0.0000000000     0.0000000000     0.0000000000


            XYZ format geometry
            -------------------
    15
 geometry
 C                     0.00000000     0.00000000     1.71185321
 C                     1.20562300     0.00000000     0.99550421
 C                    -1.20562300     0.00000000     0.99550421
 C                     0.00000000     0.00000000    -1.09664979
 C                     1.20309100     0.00000000    -0.38672779
 C                    -1.20309100     0.00000000    -0.38672779
 C                     0.00000000     0.00000000    -2.52197579
 N                     0.00000000     0.00000000     3.07739221
 N                     0.00000000     0.00000000    -3.68512279
 H                     2.14198000     0.00000000     1.53082721
 H                    -2.14198000     0.00000000     1.53082721
 H                     2.13631200     0.00000000    -0.92541979
 H                    -2.13631200     0.00000000    -0.92541979
 H                    -0.85820400     0.00000000     3.58930821
 H                     0.85820400     0.00000000     3.58930821

 ==============================================================================
                                internuclear distances
 ------------------------------------------------------------------------------
       center one      |      center two      | atomic units |  angstroms
 ------------------------------------------------------------------------------
    2 C                |   1 C                |     2.65012  |     1.40238
    3 C                |   1 C                |     2.65012  |     1.40238
    5 C                |   2 C                |     2.61204  |     1.38223
    5 C                |   4 C                |     2.63982  |     1.39693
    6 C                |   3 C                |     2.61204  |     1.38223
    6 C                |   4 C                |     2.63982  |     1.39693
    7 C                |   4 C                |     2.69348  |     1.42533
    8 N                |   1 C                |     2.58049  |     1.36554
    9 N                |   7 C                |     2.19803  |     1.16315
   10 H                |   2 C                |     2.03822  |     1.07858
   11 H                |   3 C                |     2.03822  |     1.07858
   12 H                |   5 C                |     2.03625  |     1.07754
   13 H                |   6 C                |     2.03625  |     1.07754
   14 H                |   8 N                |     1.88838  |     0.99929
   15 H                |   8 N                |     1.88838  |     0.99929
 ------------------------------------------------------------------------------
                         number of included internuclear distances:         15
 ==============================================================================



 ==============================================================================
                                 internuclear angles
 ------------------------------------------------------------------------------
        center 1       |       center 2       |       center 3       |  degrees
 ------------------------------------------------------------------------------
    2 C                |   1 C                |   3 C                |   118.56
    2 C                |   1 C                |   8 N                |   120.72
    3 C                |   1 C                |   8 N                |   120.72
    1 C                |   2 C                |   5 C                |   120.61
    1 C                |   2 C                |  10 H                |   119.53
    5 C                |   2 C                |  10 H                |   119.86
    1 C                |   3 C                |   6 C                |   120.61
    1 C                |   3 C                |  11 H                |   119.53
    6 C                |   3 C                |  11 H                |   119.86
    5 C                |   4 C                |   6 C                |   118.91
    5 C                |   4 C                |   7 C                |   120.54
    6 C                |   4 C                |   7 C                |   120.54
    2 C                |   5 C                |   4 C                |   120.65
    2 C                |   5 C                |  12 H                |   119.89
    4 C                |   5 C                |  12 H                |   119.46
    3 C                |   6 C                |   4 C                |   120.65
    3 C                |   6 C                |  13 H                |   119.89
    4 C                |   6 C                |  13 H                |   119.46
    4 C                |   7 C                |   9 N                |   180.00
    1 C                |   8 N                |  14 H                |   120.82
    1 C                |   8 N                |  15 H                |   120.82
   14 H                |   8 N                |  15 H                |   118.37
 ------------------------------------------------------------------------------
                            number of included internuclear angles:         22
 ==============================================================================





 Summary of "ao basis" -> "" (cartesian)
 ------------------------------------------------------------------------------
       Tag                 Description            Shells   Functions and Types
 ---------------- ------------------------------  ------  ---------------------
 *                         def2-TZVPD                 on all atoms 


  pbe96 is a nonlocal functional; adding pw91lda local functional. 

                                 NWChem DFT Module
                                 -----------------


                      Basis "ao basis" -> "ao basis" (cartesian)
                      -----
  C (Carbon)
  ----------
            Exponent  Coefficients 
       -------------- ---------------------------------------------------------
  1 S  1.35753497E+04  0.000222
  1 S  2.03523337E+03  0.001723
  1 S  4.63225624E+02  0.008926
  1 S  1.31200196E+02  0.035728
  1 S  4.28530159E+01  0.110763
  1 S  1.55841858E+01  0.242956

  2 S  6.20671385E+00  0.414403
  2 S  2.57648965E+00  0.237450

  3 S  5.76963394E-01  1.000000

  4 S  2.29728314E-01  1.000000

  5 S  9.51644400E-02  1.000000

  6 S  4.84754014E-02  1.000000

  7 P  3.46972322E+01  0.005333
  7 P  7.95826228E+00  0.035864
  7 P  2.37808269E+00  0.142159
  7 P  8.14332082E-01  0.342705

  8 P  2.88875473E-01  1.000000

  9 P  1.00568237E-01  1.000000

 10 D  1.09700000E+00  1.000000

 11 D  3.18000000E-01  1.000000

 12 D  9.09853364E-02  1.000000

 13 F  7.61000000E-01  1.000000

  N (Nitrogen)
  ------------
            Exponent  Coefficients 
       -------------- ---------------------------------------------------------
  1 S  1.97308006E+04  0.000219
  1 S  2.95789587E+03  0.001696
  1 S  6.73221336E+02  0.008795
  1 S  1.90682495E+02  0.035359
  1 S  6.22954419E+01  0.110958
  1 S  2.26541612E+01  0.249830

  2 S  8.97914774E+00  0.406239
  2 S  3.68630024E+00  0.243382

  3 S  8.46600768E-01  1.000000

  4 S  3.36471338E-01  1.000000

  5 S  1.36476537E-01  1.000000

  6 S  6.84416058E-02  1.000000

  7 P  4.92003805E+01  0.005555
  7 P  1.13467905E+01  0.038052
  7 P  3.42739724E+00  0.149537
  7 P  1.17855251E+00  0.349493

  8 P  4.16422050E-01  1.000000

  9 P  1.42608260E-01  1.000000

 10 D  1.65400000E+00  1.000000

 11 D  4.69000000E-01  1.000000

 12 D  1.28296421E-01  1.000000

 13 F  1.09300000E+00  1.000000

  H (Hydrogen)
  ------------
            Exponent  Coefficients 
       -------------- ---------------------------------------------------------
  1 S  3.40613410E+01  0.006025
  1 S  5.12357460E+00  0.045021
  1 S  1.16466260E+00  0.201897

  2 S  3.27230410E-01  1.000000

  3 S  1.03072410E-01  1.000000

  4 P  8.00000000E-01  1.000000

  5 P  9.57741296E-02  1.000000



 Summary of "ao basis" -> "ao basis" (cartesian)
 ------------------------------------------------------------------------------
       Tag                 Description            Shells   Functions and Types
 ---------------- ------------------------------  ------  ---------------------
 C                         def2-TZVPD               13       43   6s3p3d1f
 N                         def2-TZVPD               13       43   6s3p3d1f
 H                         def2-TZVPD                5        9   3s2p




 Summary of "ao basis" -> "ao basis" (cartesian)
 ------------------------------------------------------------------------------
       Tag                 Description            Shells   Functions and Types
 ---------------- ------------------------------  ------  ---------------------
 C                         def2-TZVPD               13       43   6s3p3d1f
 N                         def2-TZVPD               13       43   6s3p3d1f
 H                         def2-TZVPD                5        9   3s2p


  int_init: cando_txs set to always be  F
  Caching 1-el integrals 

            General Information
            -------------------
          SCF calculation type: DFT
          Wavefunction type:  closed shell.
          No. of atoms     :    15
          No. of electrons :    62
           Alpha electrons :    31
            Beta electrons :    31
          Charge           :     0
          Spin multiplicity:     1
          Use of symmetry is: off; symmetry adaption is: off
          Maximum number of iterations:  50
          AO basis - number of functions:   441
                     number of shells:   147
          Convergence on energy requested:  1.00D-06
          Convergence on density requested:  1.00D-05
          Convergence on gradient requested:  5.00D-04

              XC Information
              --------------
                     Hartree-Fock (Exact) Exchange  1.000          
                     LC-wPBE(h)Exchange Functional  1.000          
            Perdew 1991 LDA Correlation Functional  1.000 local    
           PerdewBurkeErnz. Correlation Functional  1.000 non-local

           Range-Separation Parameters        
           ---------------------------
           Alpha           :  0.00
           Beta            :  1.00
           Gamma           :  0.28
           Short-Range HF  :     F

             Grid Information
             ----------------
          Grid used for XC integration:  xfine     
          Radial quadrature: Mura-Knowles        
          Angular quadrature: Lebedev. 
          Tag              B.-S. Rad. Rad. Pts. Rad. Cut. Ang. Pts.
          ---              ---------- --------- --------- ---------
          C                   0.70      100          15.0      1454
          N                   0.65      100          17.0      1454
          H                   0.35      100          18.0      1202
          Grid pruning is: on 
          Number of quadrature shells:  1500
          Spatial weights used:  Erf1

          Convergence Information
          -----------------------
          Convergence aids based upon iterative change in 
          total energy or number of iterations. 
          Levelshifting, if invoked, occurs when the 
          HOMO/LUMO gap drops below (HL_TOL):  1.00D-02
          DIIS, if invoked, will attempt to extrapolate 
          using up to (NFOCK): 10 stored Fock matrices.

                    Damping( 0%)  Levelshifting(0.5)       DIIS
                  --------------- ------------------- ---------------
          dE  on:    start            ASAP                start   
          dE off:    2 iters         50 iters            50 iters 


      Screening Tolerance Information
      -------------------------------
          Density screening/tol_rho:  1.00D-10
          AO Gaussian exp screening on grid/accAOfunc:  14
          CD Gaussian exp screening on grid/accCDfunc:  20
          XC Gaussian exp screening on grid/accXCfunc:  20
          Schwarz screening/accCoul:  1.00D-08

  
  CAM type calculations without CDFIT are
  only available with the direct option.
  Forcing Direct SCF
  

 WARNING : Found    13 linear dependencies 
 S eigenvalue threshold:     1.00000E-05
 Smallest S eigenvalue :     2.19221E-08
 Largest  S eigenvalue :     7.84026E-06


 !! The overlap matrix has  13 vectors deemed linearly dependent with
    eigenvalues:
 2.19D-08 3.22D-07 5.07D-07 1.10D-06 1.10D-06 1.24D-06 1.81D-06 2.61D-06
 5.46D-06 5.81D-06 6.12D-06 6.73D-06 7.84D-06


      Superposition of Atomic Density Guess
      -------------------------------------

 Sum of atomic energies:        -375.32128307

      Non-variational initial energy
      ------------------------------

 Total energy =    -381.392822
 1-e energy   =   -1251.496977
 2-e energy   =     493.276824
 HOMO         =      -0.242771
 LUMO         =      -0.031217

  WARNING: movecs_in_org=atomic not equal to movecs_in=./aminobenzonitrile.movecs
   Time after variat. SCF:     17.4
   Time prior to 1st pass:     17.4

 Grid_pts file          = ./aminobenzonitrile.gridpts.00
 Record size in doubles =  12289        No. of grid_pts per rec  =   3070
 Max. records in memory =     18        Max. recs in file   =  21109390

 Grid integrated density:      61.889291307404
 Requested integration accuracy:   0.10E-07

           Memory utilization after 1st SCF pass: 
           Heap Space remaining (MW):     7864.21          7864211954
          Stack Space remaining (MW):    13107.20         13107197412

   convergence    iter        energy       DeltaE   RMS-Dens  Diis-err    time
 ---------------- ----- ----------------- --------- --------- ---------  ------
 d= 0,ls=0.0,diis     1   -376.9821355073 -7.54D+02  2.38D+02  4.87D+03    58.5
 Grid integrated density:      62.000032574930
 Requested integration accuracy:   0.10E-07
 d= 0,ls=0.0,diis     2   -358.7327812062  1.82D+01  2.23D+02  1.76D+02    97.8
 Grid integrated density:      62.000015201920
 Requested integration accuracy:   0.10E-07
 d= 0,ls=0.0,diis     3   -366.9365116628 -8.20D+00  2.95D+01  7.92D+01   140.1
 Grid integrated density:      62.000014538290
 Requested integration accuracy:   0.10E-07
 d= 0,ls=0.0,diis     4   -349.6881632217  1.72D+01  4.19D+01  8.35D+01   186.4
 d= 0,ls=0.5,diis     5   -336.5728863805  1.31D+01  1.81D-01  1.57D+02   229.4
 d= 0,ls=0.5,diis     6   -362.4398016754 -2.59D+01  7.41D-02  7.58D+01   271.1
 d= 0,ls=0.5,diis     7   -366.8158868700 -4.38D+00  6.73D-02  6.63D+01   310.9
 d= 0,ls=0.5,diis     8   -369.2163648926 -2.40D+00  4.30D-02  5.06D+01   348.7
 d= 0,ls=0.5,diis     9   -371.1189856051 -1.90D+00  2.26D-02  3.94D+01   387.9
 d= 0,ls=0.5,diis    10   -372.5912847015 -1.47D+00  1.87D-02  3.36D+01   425.2
 d= 0,ls=0.5,diis    11   -373.7538665366 -1.16D+00  8.11D-02  2.70D+01   462.5
 d= 0,ls=0.5,diis    12   -375.5388437690 -1.78D+00  1.29D-01  1.40D+01   503.8
 d= 0,ls=0.5,diis    13   -378.6395394808 -3.10D+00  4.44D-02  1.98D+00   546.7
 d= 0,ls=0.5,diis    14   -378.8868591265 -2.47D-01  2.67D-02  1.88D-01   591.7
 Grid integrated density:      62.000000886234
 Requested integration accuracy:   0.10E-07
  Resetting Diis
 d= 0,ls=0.5,diis    15   -378.9273075304 -4.04D-02  3.39D-02  5.81D-02   629.6
 Grid integrated density:      62.000000995757
 Requested integration accuracy:   0.10E-07
 d= 0,ls=0.5,diis    16   -378.9480754003 -2.08D-02  7.29D-02  3.04D-02   668.4
 Grid integrated density:      62.000001315072
 Requested integration accuracy:   0.10E-07
 d= 0,ls=0.5,diis    17   -378.9657899371 -1.77D-02  4.60D-02  2.52D-02   714.9
 Grid integrated density:      62.000001609953
 Requested integration accuracy:   0.10E-07
 d= 0,ls=0.5,diis    18   -378.9955206944 -2.97D-02  3.97D-02  4.95D-02   754.5
 Grid integrated density:      62.000001724703
 Requested integration accuracy:   0.10E-07
 d= 0,ls=0.5,diis    19   -379.0523980688 -5.69D-02  5.41D-02  1.16D-01   793.2
 Grid integrated density:      62.000001602885
 Requested integration accuracy:   0.10E-07
 d= 0,ls=0.5,diis    20   -379.1541745160 -1.02D-01  6.43D-02  2.37D-01   832.8
 Grid integrated density:      62.000001259903
 Requested integration accuracy:   0.10E-07
 d= 0,ls=0.5,diis    21   -379.2881597052 -1.34D-01  5.45D-02  3.52D-01   876.6
 Grid integrated density:      62.000000833687
 Requested integration accuracy:   0.10E-07
 d= 0,ls=0.5,diis    22   -379.3980784799 -1.10D-01  3.52D-02  4.58D-01   916.3
 d= 0,ls=0.5,diis    23   -379.4592003324 -6.11D-02  1.93D-02  5.56D-01   953.8
 d= 0,ls=0.5,diis    24   -379.4879218686 -2.87D-02  9.99D-03  6.40D-01   990.8
 d= 0,ls=0.5,diis    25   -379.5018172647 -1.39D-02  5.07D-03  6.91D-01  1029.9
 d= 0,ls=0.5,diis    26   -379.5164105769 -1.46D-02  2.74D-03  6.68D-01  1066.6
 d= 0,ls=0.5,diis    27   -379.5514988451 -3.51D-02  1.65D-03  4.81D-01  1105.4
 d= 0,ls=0.5,diis    28   -379.5799391899 -2.84D-02  1.32D-03  3.27D-01  1144.0
 d= 0,ls=0.5,diis    29   -379.6185327334 -3.86D-02  8.12D-04  1.05D-01  1182.2
 d= 0,ls=0.5,diis    30   -379.6325710145 -1.40D-02  4.85D-04  3.16D-02  1218.7
 d= 0,ls=0.5,diis    31   -379.6373950192 -4.82D-03  2.69D-04  8.63D-03  1255.3
 d= 0,ls=0.5,diis    32   -379.6389647843 -1.57D-03  1.37D-04  1.80D-03  1292.4
 d= 0,ls=0.5,diis    33   -379.6393805023 -4.16D-04  7.83D-05  4.35D-04  1338.4
 d= 0,ls=0.5,diis    34   -379.6395064226 -1.26D-04  4.93D-05  1.37D-04  1376.5
 d= 0,ls=0.5,diis    35   -379.6395523853 -4.60D-05  2.83D-05  4.88D-05  1416.8
 d= 0,ls=0.5,diis    36   -379.6395695212 -1.71D-05  1.61D-05  1.72D-05  1459.1
 d= 0,ls=0.5,diis    37   -379.6395755848 -6.06D-06  8.96D-06  6.46D-06  1497.5
 d= 0,ls=0.5,diis    38   -379.6395777697 -2.18D-06  4.84D-06  2.38D-06  1535.1
 d= 0,ls=0.5,diis    39   -379.6395785524 -7.83D-07  2.59D-06  8.69D-07  1572.6


         Total DFT energy =     -379.639578828897
      One electron energy =    -1258.571112008317
           Coulomb energy =      555.786743033411
    Exchange-Corr. energy =      -53.682540440873
 Nuclear repulsion energy =      376.827330586882

 Numeric. integr. density =       62.000000106945

     Total iterative time =   1592.5s



                       DFT Final Molecular Orbital Analysis
                       ------------------------------------

 Vector    1  Occ=2.000000D+00  E=-1.417511D+01
              MO Center= -1.4D-09, -1.3D-10,  3.1D+00, r^2= 2.0D-02
   Bfn.  Coefficient  Atom+Function         Bfn.  Coefficient  Atom+Function  
  ----- ------------  ---------------      ----- ------------  ---------------
   303      0.618991   8 N  s               302      0.449485   8 N  s         
   305     -0.110107   8 N  s               304      0.100744   8 N  s         

 Vector    2  Occ=2.000000D+00  E=-1.412873D+01
              MO Center= -5.5D-10,  2.3D-10, -3.7D+00, r^2= 2.0D-02
   Bfn.  Coefficient  Atom+Function         Bfn.  Coefficient  Atom+Function  
  ----- ------------  ---------------      ----- ------------  ---------------
   346      0.619320   9 N  s               345      0.449380   9 N  s         
   348     -0.114959   9 N  s               347      0.097346   9 N  s         

 Vector    3  Occ=2.000000D+00  E=-1.011551D+01
              MO Center= -4.4D-09,  2.9D-10,  1.7D+00, r^2= 2.8D-02
   Bfn.  Coefficient  Atom+Function         Bfn.  Coefficient  Atom+Function  
  ----- ------------  ---------------      ----- ------------  ---------------
     2      0.599537   1 C  s                 1      0.468115   1 C  s         
     3      0.101997   1 C  s                 4     -0.099654   1 C  s         

 Vector    4  Occ=2.000000D+00  E=-1.008045D+01
              MO Center= -1.4D-06,  4.7D-11, -1.1D+00, r^2= 3.1D-02
   Bfn.  Coefficient  Atom+Function         Bfn.  Coefficient  Atom+Function  
  ----- ------------  ---------------      ----- ------------  ---------------
   131      0.598986   4 C  s               130      0.467775   4 C  s         
   132      0.102143   4 C  s               133     -0.100921   4 C  s         

 Vector    5  Occ=2.000000D+00  E=-1.007181D+01
              MO Center= -8.0D-01,  3.1D-09, -4.8D-01, r^2= 9.7D-01
   Bfn.  Coefficient  Atom+Function         Bfn.  Coefficient  Atom+Function  
  ----- ------------  ---------------      ----- ------------  ---------------
   217      0.539287   6 C  s               216      0.421095   6 C  s         
   174     -0.229732   5 C  s               173     -0.179379   5 C  s         
   260     -0.124704   7 C  s               259     -0.097393   7 C  s         
   218      0.092293   6 C  s               219     -0.091080   6 C  s         
   175     -0.039393   5 C  s               176      0.038650   5 C  s         

 Vector    6  Occ=2.000000D+00  E=-1.007180D+01
              MO Center=  3.9D-01, -1.3D-09, -1.8D+00, r^2= 1.4D+00
   Bfn.  Coefficient  Atom+Function         Bfn.  Coefficient  Atom+Function  
  ----- ------------  ---------------      ----- ------------  ---------------
   260      0.491985   7 C  s               259      0.384242   7 C  s         
   174     -0.340571   5 C  s               173     -0.265935   5 C  s         
   262     -0.108140   7 C  s               261      0.087139   7 C  s         
   175     -0.058035   5 C  s               176      0.057131   5 C  s         
   217     -0.031231   6 C  s         

 Vector    7  Occ=2.000000D+00  E=-1.007179D+01
              MO Center=  4.1D-01, -1.5D-09, -9.9D-01, r^2= 1.8D+00
   Bfn.  Coefficient  Atom+Function         Bfn.  Coefficient  Atom+Function  
  ----- ------------  ---------------      ----- ------------  ---------------
   174      0.436165   5 C  s               173      0.340575   5 C  s         
   260      0.318144   7 C  s               217      0.259228   6 C  s         
   259      0.248475   7 C  s               216      0.202417   6 C  s         
   175      0.074951   5 C  s               176     -0.074598   5 C  s         
   262     -0.070718   7 C  s               261      0.056474   7 C  s         

 Vector    8  Occ=2.000000D+00  E=-1.006034D+01
              MO Center= -1.2D+00,  7.7D-09,  9.9D-01, r^2= 2.9D-02
   Bfn.  Coefficient  Atom+Function         Bfn.  Coefficient  Atom+Function  
  ----- ------------  ---------------      ----- ------------  ---------------
    88      0.599252   3 C  s                87      0.467965   3 C  s         
    89      0.102970   3 C  s                90     -0.101785   3 C  s         

 Vector    9  Occ=2.000000D+00  E=-1.006033D+01
              MO Center=  1.2D+00, -7.0D-09,  9.9D-01, r^2= 2.9D-02
   Bfn.  Coefficient  Atom+Function         Bfn.  Coefficient  Atom+Function  
  ----- ------------  ---------------      ----- ------------  ---------------
    45      0.599252   2 C  s                44      0.467964   2 C  s         
    46      0.102970   2 C  s                47     -0.101781   2 C  s         

 Vector   10  Occ=2.000000D+00  E=-1.032831D+00
              MO Center= -2.2D-06,  1.0D-08,  2.5D+00, r^2= 1.4D+00
   Bfn.  Coefficient  Atom+Function         Bfn.  Coefficient  Atom+Function  
  ----- ------------  ---------------      ----- ------------  ---------------
   305      0.334432   8 N  s               304      0.246610   8 N  s         
     3      0.188871   1 C  s               303     -0.177618   8 N  s         
     4      0.162204   1 C  s                 2     -0.117282   1 C  s         
   302     -0.081465   8 N  s                46      0.069243   2 C  s         
    89      0.069245   3 C  s                 9      0.065691   1 C  pz        

 Vector   11  Occ=2.000000D+00  E=-9.773215D-01
              MO Center= -2.9D-06,  5.1D-08, -2.2D+00, r^2= 3.1D+00
   Bfn.  Coefficient  Atom+Function         Bfn.  Coefficient  Atom+Function  
  ----- ------------  ---------------      ----- ------------  ---------------
   262      0.281035   7 C  s               347      0.253267   9 N  s         
   261      0.243167   7 C  s               291     -0.181020   7 C  dzz       
   162     -0.151094   4 C  dzz             346     -0.147367   9 N  s         
   260     -0.142816   7 C  s               132      0.139346   4 C  s         
   353      0.124584   9 N  pz              267     -0.100660   7 C  pz        

 Vector   12  Occ=2.000000D+00  E=-9.490220D-01
              MO Center= -1.3D-05,  4.0D-08, -6.2D-01, r^2= 5.1D+00
   Bfn.  Coefficient  Atom+Function         Bfn.  Coefficient  Atom+Function  
  ----- ------------  ---------------      ----- ------------  ---------------
   262     -0.237308   7 C  s               133      0.228335   4 C  s         
   347     -0.184538   9 N  s               305     -0.144758   8 N  s         
   175      0.130452   5 C  s               218      0.130456   6 C  s         
   267      0.129833   7 C  pz              132      0.128695   4 C  s         
   261     -0.109026   7 C  s               346      0.106892   9 N  s         

 Vector   13  Occ=2.000000D+00  E=-8.590862D-01
              MO Center= -2.0D-05,  5.5D-08,  3.5D-01, r^2= 2.9D+00
   Bfn.  Coefficient  Atom+Function         Bfn.  Coefficient  Atom+Function  
  ----- ------------  ---------------      ----- ------------  ---------------
    46      0.182389   2 C  s                89     -0.182405   3 C  s         
   175      0.180569   5 C  s               218     -0.180562   6 C  s         
    47      0.171302   2 C  s                90     -0.171314   3 C  s         
   176      0.162119   5 C  s               219     -0.162112   6 C  s         
    45     -0.111721   2 C  s                88      0.111731   3 C  s         

 Vector   14  Occ=2.000000D+00  E=-8.543830D-01
              MO Center=  2.6D-05,  4.3D-08,  2.9D-01, r^2= 4.5D+00
   Bfn.  Coefficient  Atom+Function         Bfn.  Coefficient  Atom+Function  
  ----- ------------  ---------------      ----- ------------  ---------------
   133      0.262705   4 C  s               132      0.197018   4 C  s         
     4     -0.181161   1 C  s               305      0.154810   8 N  s         
     3     -0.150491   1 C  s               267      0.133439   7 C  pz        
    46     -0.127426   2 C  s                89     -0.127403   3 C  s         
   131     -0.122057   4 C  s                47     -0.105744   2 C  s         

 Vector   15  Occ=2.000000D+00  E=-7.383358D-01
              MO Center= -9.6D-06,  9.9D-09,  5.7D-01, r^2= 5.3D+00
   Bfn.  Coefficient  Atom+Function         Bfn.  Coefficient  Atom+Function  
  ----- ------------  ---------------      ----- ------------  ---------------
     4      0.246471   1 C  s                 3      0.170937   1 C  s         
   310     -0.164844   8 N  pz              133      0.142256   4 C  s         
   267      0.140046   7 C  pz              138     -0.117916   4 C  pz        
   132      0.116518   4 C  s               175     -0.115946   5 C  s         
   218     -0.115954   6 C  s                 2     -0.104864   1 C  s         

 Vector   16  Occ=2.000000D+00  E=-7.329880D-01
              MO Center=  1.3D-05,  2.6D-09,  6.7D-01, r^2= 4.1D+00
   Bfn.  Coefficient  Atom+Function         Bfn.  Coefficient  Atom+Function  
  ----- ------------  ---------------      ----- ------------  ---------------
   176     -0.183213   5 C  s               219      0.183207   6 C  s         
     7      0.171415   1 C  px               47      0.161257   2 C  s         
    90     -0.161260   3 C  s               175     -0.147495   5 C  s         
   218      0.147490   6 C  s               136     -0.144052   4 C  px        
    46      0.129282   2 C  s                89     -0.129286   3 C  s         

 Vector   17  Occ=2.000000D+00  E=-6.574816D-01
              MO Center= -9.9D-06,  8.2D-09,  9.0D-02, r^2= 4.1D+00
   Bfn.  Coefficient  Atom+Function         Bfn.  Coefficient  Atom+Function  
  ----- ------------  ---------------      ----- ------------  ---------------
   138      0.181960   4 C  pz              179     -0.149790   5 C  px        
   222      0.149793   6 C  px               50     -0.137593   2 C  px        
    93      0.137595   3 C  px              262     -0.132519   7 C  s         
   270     -0.124047   7 C  pz              267     -0.105451   7 C  pz        
   389     -0.103941  10 H  s               398     -0.103942  11 H  s         

 Vector   18  Occ=2.000000D+00  E=-6.373484D-01
              MO Center=  3.3D-06,  6.6D-09,  2.0D+00, r^2= 4.5D+00
   Bfn.  Coefficient  Atom+Function         Bfn.  Coefficient  Atom+Function  
  ----- ------------  ---------------      ----- ------------  ---------------
   308      0.291154   8 N  px              311      0.189393   8 N  px        
   425     -0.169573  14 H  s               434      0.169574  15 H  s         
   136      0.126971   4 C  px              424     -0.121820  14 H  s         
   433      0.121821  15 H  s               181     -0.116013   5 C  pz        
   224      0.116014   6 C  pz              314      0.099780   8 N  px        

 Vector   19  Occ=2.000000D+00  E=-6.281983D-01
              MO Center=  4.2D-06,  9.9D-09,  1.1D+00, r^2= 5.5D+00
   Bfn.  Coefficient  Atom+Function         Bfn.  Coefficient  Atom+Function  
  ----- ------------  ---------------      ----- ------------  ---------------
   310      0.263365   8 N  pz                9     -0.220585   1 C  pz        
   176     -0.148074   5 C  s               219     -0.148073   6 C  s         
    12     -0.143999   1 C  pz              138     -0.135336   4 C  pz        
   313      0.133664   8 N  pz              267      0.114970   7 C  pz        
   162      0.112312   4 C  dzz               4     -0.111569   1 C  s         

 Vector   20  Occ=2.000000D+00  E=-5.510301D-01
              MO Center= -1.3D-05,  4.0D-09,  8.0D-01, r^2= 4.4D+00
   Bfn.  Coefficient  Atom+Function         Bfn.  Coefficient  Atom+Function  
  ----- ------------  ---------------      ----- ------------  ---------------
   136      0.189954   4 C  px                7      0.185107   1 C  px        
   308     -0.165094   8 N  px               52      0.158159   2 C  pz        
    95     -0.158165   3 C  pz              181     -0.134922   5 C  pz        
   224      0.134927   6 C  pz              159      0.121318   4 C  dxz       
    10      0.118861   1 C  px              179     -0.117071   5 C  px        

 Vector   21  Occ=2.000000D+00  E=-5.471292D-01
              MO Center= -8.9D-07,  7.6D-09,  3.4D-01, r^2= 4.5D+00
   Bfn.  Coefficient  Atom+Function         Bfn.  Coefficient  Atom+Function  
  ----- ------------  ---------------      ----- ------------  ---------------
   133      0.156810   4 C  s               179     -0.152795   5 C  px        
   222      0.152793   6 C  px               50      0.150641   2 C  px        
    93     -0.150646   3 C  px                9      0.130943   1 C  pz        
   389      0.124927  10 H  s               398      0.124928  11 H  s         
   138      0.121996   4 C  pz              407     -0.114796  12 H  s         

 Vector   22  Occ=2.000000D+00  E=-5.289311D-01
              MO Center= -2.3D-05,  6.3D-09,  3.9D-01, r^2= 4.0D+00
   Bfn.  Coefficient  Atom+Function         Bfn.  Coefficient  Atom+Function  
  ----- ------------  ---------------      ----- ------------  ---------------
    50      0.155592   2 C  px               93      0.155591   3 C  px        
   179      0.144129   5 C  px              222      0.144130   6 C  px        
    52      0.133802   2 C  pz               95     -0.133808   3 C  pz        
   389      0.134055  10 H  s               398     -0.134056  11 H  s         
   181     -0.131577   5 C  pz              224      0.131584   6 C  pz        

 Vector   23  Occ=2.000000D+00  E=-5.200190D-01
              MO Center= -6.5D-06,  2.0D-10,  6.4D-01, r^2= 3.8D+00
   Bfn.  Coefficient  Atom+Function         Bfn.  Coefficient  Atom+Function  
  ----- ------------  ---------------      ----- ------------  ---------------
     8      0.196673   1 C  py               11      0.158010   1 C  py        
   309      0.147892   8 N  py              137      0.144774   4 C  py        
    51      0.138406   2 C  py               94      0.138409   3 C  py        
   312      0.131203   8 N  py              180      0.127270   5 C  py        
   223      0.127273   6 C  py               54      0.121328   2 C  py        

 Vector   24  Occ=2.000000D+00  E=-4.943767D-01
              MO Center=  4.0D-05,  4.0D-09,  5.4D-02, r^2= 4.8D+00
   Bfn.  Coefficient  Atom+Function         Bfn.  Coefficient  Atom+Function  
  ----- ------------  ---------------      ----- ------------  ---------------
   181     -0.207213   5 C  pz              224     -0.207206   6 C  pz        
    52      0.201139   2 C  pz               95      0.201132   3 C  pz        
    58      0.170748   2 C  pz              101      0.170742   3 C  pz        
   262     -0.162122   7 C  s                33      0.138434   1 C  dzz       
   310      0.132378   8 N  pz                9     -0.124676   1 C  pz        

 Vector   25  Occ=2.000000D+00  E=-4.690327D-01
              MO Center= -2.8D-06,  5.7D-08, -5.1D-01, r^2= 7.1D+00
   Bfn.  Coefficient  Atom+Function         Bfn.  Coefficient  Atom+Function  
  ----- ------------  ---------------      ----- ------------  ---------------
   266      0.215429   7 C  py              309     -0.198086   8 N  py        
   352      0.180559   9 N  py              312     -0.178748   8 N  py        
   269      0.175626   7 C  py              137      0.170572   4 C  py        
     8     -0.157877   1 C  py              355      0.146353   9 N  py        
   140      0.142477   4 C  py               11     -0.125473   1 C  py        

 Vector   26  Occ=2.000000D+00  E=-4.542029D-01
              MO Center=  7.1D-06,  4.0D-09, -1.7D-02, r^2= 5.3D+00
   Bfn.  Coefficient  Atom+Function         Bfn.  Coefficient  Atom+Function  
  ----- ------------  ---------------      ----- ------------  ---------------
     7      0.211945   1 C  px               50     -0.164760   2 C  px        
    93     -0.164760   3 C  px              136     -0.151974   4 C  px        
   179      0.148939   5 C  px              222      0.148940   6 C  px        
    13      0.146622   1 C  px               10      0.129666   1 C  px        
   265     -0.128148   7 C  px              407      0.125375  12 H  s         

 Vector   27  Occ=2.000000D+00  E=-4.380492D-01
              MO Center= -1.5D-07,  9.8D-09, -3.6D+00, r^2= 1.9D+00
   Bfn.  Coefficient  Atom+Function         Bfn.  Coefficient  Atom+Function  
  ----- ------------  ---------------      ----- ------------  ---------------
   348      0.439725   9 N  s               353     -0.367094   9 N  pz        
   262     -0.344680   7 C  s               349      0.239754   9 N  s         
   267      0.220668   7 C  pz              270      0.191866   7 C  pz        
   350      0.192569   9 N  s               347      0.187944   9 N  s         
   133      0.162495   4 C  s               162     -0.135716   4 C  dzz       

 Vector   28  Occ=2.000000D+00  E=-4.153107D-01
              MO Center=  3.0D-06, -6.3D-11, -2.6D+00, r^2= 3.1D+00
   Bfn.  Coefficient  Atom+Function         Bfn.  Coefficient  Atom+Function  
  ----- ------------  ---------------      ----- ------------  ---------------
   351      0.308483   9 N  px              265      0.264013   7 C  px        
   354      0.246935   9 N  px              268      0.219741   7 C  px        
   159     -0.137453   4 C  dxz             357      0.136909   9 N  px        
   136     -0.125896   4 C  px              179      0.093411   5 C  px        
   222      0.093411   6 C  px              139     -0.079706   4 C  px        

 Vector   29  Occ=2.000000D+00  E=-4.067932D-01
              MO Center= -1.6D-05, -1.3D-07, -7.0D-01, r^2= 8.3D+00
   Bfn.  Coefficient  Atom+Function         Bfn.  Coefficient  Atom+Function  
  ----- ------------  ---------------      ----- ------------  ---------------
   352      0.241682   9 N  py              309      0.225855   8 N  py        
   312      0.206467   8 N  py              266      0.194400   7 C  py        
   355      0.194379   9 N  py              269      0.155529   7 C  py        
   315      0.139975   8 N  py              180     -0.120900   5 C  py        
   223     -0.120907   6 C  py              183     -0.105678   5 C  py        

 Vector   30  Occ=2.000000D+00  E=-3.656135D-01
              MO Center=  2.2D-05, -4.0D-08,  3.1D-01, r^2= 3.0D+00
   Bfn.  Coefficient  Atom+Function         Bfn.  Coefficient  Atom+Function  
  ----- ------------  ---------------      ----- ------------  ---------------
    51      0.216054   2 C  py               94     -0.216053   3 C  py        
   180      0.215995   5 C  py              223     -0.215991   6 C  py        
    54      0.190081   2 C  py               97     -0.190080   3 C  py        
   183      0.185895   5 C  py              226     -0.185892   6 C  py        
    57      0.125180   2 C  py              100     -0.125179   3 C  py        

 Vector   31  Occ=2.000000D+00  E=-3.049070D-01
              MO Center= -4.0D-05,  1.3D-08,  6.7D-01, r^2= 6.0D+00
   Bfn.  Coefficient  Atom+Function         Bfn.  Coefficient  Atom+Function  
  ----- ------------  ---------------      ----- ------------  ---------------
   309      0.254678   8 N  py              312      0.237983   8 N  py        
   137      0.213500   4 C  py              140      0.184863   4 C  py        
   315      0.176763   8 N  py               51     -0.156873   2 C  py        
    94     -0.156887   3 C  py              352     -0.147584   9 N  py        
     8     -0.141978   1 C  py              143      0.140478   4 C  py        

 Vector   32  Occ=0.000000D+00  E= 2.724237D-02
              MO Center= -1.2D-05, -1.6D-07, -2.8D-01, r^2= 6.0D+00
   Bfn.  Coefficient  Atom+Function         Bfn.  Coefficient  Atom+Function  
  ----- ------------  ---------------      ----- ------------  ---------------
     8      0.255034   1 C  py               11      0.243812   1 C  py        
   290      0.217873   7 C  dyz             137      0.198278   4 C  py        
   140      0.199024   4 C  py              352     -0.175303   9 N  py        
   355     -0.170496   9 N  py              180     -0.162723   5 C  py        
   223     -0.162737   6 C  py              183     -0.152390   5 C  py        

 Vector   33  Occ=0.000000D+00  E= 3.764056D-02
              MO Center=  4.9D-05,  9.1D-08,  3.3D-01, r^2= 4.2D+00
   Bfn.  Coefficient  Atom+Function         Bfn.  Coefficient  Atom+Function  
  ----- ------------  ---------------      ----- ------------  ---------------
    29      0.268232   1 C  dxy              54      0.222149   2 C  py        
    97     -0.222145   3 C  py              180     -0.222489   5 C  py        
   223      0.222478   6 C  py              183     -0.219357   5 C  py        
   226      0.219346   6 C  py               51      0.213882   2 C  py        
    94     -0.213877   3 C  py              158     -0.101998   4 C  dxy       

 Vector   34  Occ=0.000000D+00  E= 4.511574D-02
              MO Center=  4.3D-05,  3.6D-07,  2.7D+00, r^2= 1.3D+01
   Bfn.  Coefficient  Atom+Function         Bfn.  Coefficient  Atom+Function  
  ----- ------------  ---------------      ----- ------------  ---------------
   307      3.485722   8 N  s               135     -3.284093   4 C  s         
    49      3.180860   2 C  s                92      3.180763   3 C  s         
   426     -2.916033  14 H  s               435     -2.916078  15 H  s         
   264      2.723690   7 C  s                15      1.973211   1 C  pz        
   316      1.415136   8 N  pz                5      1.182029   1 C  s         

 Vector   35  Occ=0.000000D+00  E= 6.388070D-02
              MO Center=  2.1D-04,  2.5D-08,  3.0D-01, r^2= 2.0D+01
   Bfn.  Coefficient  Atom+Function         Bfn.  Coefficient  Atom+Function  
  ----- ------------  ---------------      ----- ------------  ---------------
   135      8.872465   4 C  s               264     -6.490626   7 C  s         
   178     -4.919860   5 C  s               221     -4.919633   6 C  s         
   291      3.885333   7 C  dzz               6      3.805029   1 C  s         
   390     -2.963381  10 H  s               399     -2.963185  11 H  s         
   426     -2.720223  14 H  s               435     -2.719988  15 H  s         

 Vector   36  Occ=0.000000D+00  E= 6.557303D-02
              MO Center= -2.2D-04,  7.4D-08,  1.6D+00, r^2= 1.7D+01
   Bfn.  Coefficient  Atom+Function         Bfn.  Coefficient  Atom+Function  
  ----- ------------  ---------------      ----- ------------  ---------------
    49      6.000726   2 C  s                92     -6.001007   3 C  s         
    71     -1.968003   2 C  dxx             114      1.968266   3 C  dxx       
   426      1.754198  14 H  s               435     -1.754573  15 H  s         
   390      1.297482  10 H  s               399     -1.297995  11 H  s         
    73     -1.224813   2 C  dxz             116     -1.224819   3 C  dxz       

 Vector   37  Occ=0.000000D+00  E= 9.465656D-02
              MO Center=  2.8D-05,  8.5D-08, -1.5D-01, r^2= 2.1D+01
   Bfn.  Coefficient  Atom+Function         Bfn.  Coefficient  Atom+Function  
  ----- ------------  ---------------      ----- ------------  ---------------
     6     11.392461   1 C  s                49     -8.013401   2 C  s         
    92     -8.012942   3 C  s               291     -6.150789   7 C  dzz       
   162     -4.965520   4 C  dzz             264      4.839030   7 C  s         
   390      4.478116  10 H  s               399      4.478132  11 H  s         
    58     -3.116177   2 C  pz              101     -3.116288   3 C  pz        

 Vector   38  Occ=0.000000D+00  E= 9.528830D-02
              MO Center= -3.6D-05,  7.1D-08,  6.2D-02, r^2= 2.0D+01
   Bfn.  Coefficient  Atom+Function         Bfn.  Coefficient  Atom+Function  
  ----- ------------  ---------------      ----- ------------  ---------------
   178      9.587641   5 C  s               221     -9.587748   6 C  s         
    49     -5.845533   2 C  s                92      5.846173   3 C  s         
   142     -3.204075   4 C  px              426     -2.870342  14 H  s         
   435      2.870452  15 H  s               159      2.828707   4 C  dxz       
   200     -2.470629   5 C  dxx             243      2.470623   6 C  dxx       

 Vector   39  Occ=0.000000D+00  E= 1.026663D-01
              MO Center=  5.6D-06,  2.2D-07,  6.9D-01, r^2= 1.6D+01
   Bfn.  Coefficient  Atom+Function         Bfn.  Coefficient  Atom+Function  
  ----- ------------  ---------------      ----- ------------  ---------------
   135     10.044225   4 C  s                 6      9.496492   1 C  s         
   307     -6.285954   8 N  s               264     -5.553460   7 C  s         
   426      3.816798  14 H  s               435      3.816871  15 H  s         
    33     -2.920762   1 C  dzz             178     -2.679333   5 C  s         
   221     -2.679383   6 C  s               408      2.634533  12 H  s         

 Vector   40  Occ=0.000000D+00  E= 1.171822D-01
              MO Center=  9.2D-07,  2.8D-08, -2.3D+00, r^2= 6.3D+00
   Bfn.  Coefficient  Atom+Function         Bfn.  Coefficient  Atom+Function  
  ----- ------------  ---------------      ----- ------------  ---------------
   178      2.645054   5 C  s               221     -2.645023   6 C  s         
    49     -1.849047   2 C  s                92      1.849006   3 C  s         
   426     -1.795071  14 H  s               435      1.795081  15 H  s         
    30     -1.447810   1 C  dxz             159      1.082071   4 C  dxz       
   390     -0.923363  10 H  s               399      0.923402  11 H  s         

 Vector   41  Occ=0.000000D+00  E= 1.315478D-01
              MO Center= -7.3D-06,  2.0D-08, -5.8D-02, r^2= 2.4D+01
   Bfn.  Coefficient  Atom+Function         Bfn.  Coefficient  Atom+Function  
  ----- ------------  ---------------      ----- ------------  ---------------
   178     10.987954   5 C  s               221     10.987989   6 C  s         
   291      9.819516   7 C  dzz             162      8.034237   4 C  dzz       
    49     -7.381320   2 C  s                92     -7.381294   3 C  s         
   135     -7.080410   4 C  s               264     -5.576110   7 C  s         
   349     -5.192272   9 N  s               307      4.950026   8 N  s         

 Vector   42  Occ=0.000000D+00  E= 1.374128D-01
              MO Center=  2.3D-05,  1.0D-07,  4.5D-01, r^2= 1.1D+01
   Bfn.  Coefficient  Atom+Function         Bfn.  Coefficient  Atom+Function  
  ----- ------------  ---------------      ----- ------------  ---------------
   290      0.660449   7 C  dyz             315     -0.594292   8 N  py        
   143     -0.582501   4 C  py              395      0.431376  10 H  py        
   404      0.431360  11 H  py               32      0.420642   1 C  dyz       
   272      0.414280   7 C  py              204      0.408741   5 C  dyz       
   247      0.408728   6 C  dyz              57     -0.354083   2 C  py        

 Vector   43  Occ=0.000000D+00  E= 1.471843D-01
              MO Center= -1.2D-06,  7.0D-08,  1.6D+00, r^2= 1.8D+01
   Bfn.  Coefficient  Atom+Function         Bfn.  Coefficient  Atom+Function  
  ----- ------------  ---------------      ----- ------------  ---------------
    49      7.776918   2 C  s                92     -7.776946   3 C  s         
    30     -6.501841   1 C  dxz             426     -5.351728  14 H  s         
   435      5.351699  15 H  s               178     -4.972446   5 C  s         
   221      4.972561   6 C  s                13     -4.192904   1 C  px        
   159      2.471925   4 C  dxz              58      2.254234   2 C  pz        

 Vector   44  Occ=0.000000D+00  E= 1.516468D-01
              MO Center=  8.4D-06,  2.6D-07, -7.4D-03, r^2= 1.9D+01
   Bfn.  Coefficient  Atom+Function         Bfn.  Coefficient  Atom+Function  
  ----- ------------  ---------------      ----- ------------  ---------------
   135     23.049983   4 C  s                 6    -18.530085   1 C  s         
   390     -6.393302  10 H  s               399     -6.393208  11 H  s         
   264     -6.059049   7 C  s                49      6.000437   2 C  s         
    92      6.000509   3 C  s               178     -5.928209   5 C  s         
   221     -5.928311   6 C  s               408      5.947158  12 H  s         

 Vector   45  Occ=0.000000D+00  E= 1.687370D-01
              MO Center= -1.0D-05,  3.3D-08, -1.1D+00, r^2= 2.2D+01
   Bfn.  Coefficient  Atom+Function         Bfn.  Coefficient  Atom+Function  
  ----- ------------  ---------------      ----- ------------  ---------------
     6     13.402473   1 C  s               291     12.087229   7 C  dzz       
   350     -9.565708   9 N  s               162      8.241758   4 C  dzz       
    49     -7.559030   2 C  s                92     -7.559108   3 C  s         
   408     -7.532878  12 H  s               417     -7.532856  13 H  s         
   307     -4.529128   8 N  s               135      3.642721   4 C  s         

 Vector   46  Occ=0.000000D+00  E= 1.763046D-01
              MO Center=  1.4D-06,  1.0D-06,  1.3D+00, r^2= 1.3D+01
   Bfn.  Coefficient  Atom+Function         Bfn.  Coefficient  Atom+Function  
  ----- ------------  ---------------      ----- ------------  ---------------
    29      5.418517   1 C  dxy              57     -3.148164   2 C  py        
   100      3.148177   3 C  py               75     -2.677460   2 C  dyz       
   118      2.677440   3 C  dyz             158      2.044051   4 C  dxy       
   186     -2.027054   5 C  py              229      2.027024   6 C  py        
   395      1.077595  10 H  py              404     -1.077601  11 H  py        

 Vector   47  Occ=0.000000D+00  E= 1.796818D-01
              MO Center=  1.3D-06, -1.0D-06,  7.0D-01, r^2= 1.5D+01
   Bfn.  Coefficient  Atom+Function         Bfn.  Coefficient  Atom+Function  
  ----- ------------  ---------------      ----- ------------  ---------------
   390     17.026745  10 H  s               399    -17.026738  11 H  s         
   408     13.275253  12 H  s               417    -13.275305  13 H  s         
   177     -8.656738   5 C  s               220      8.656771   6 C  s         
    48     -8.508865   2 C  s                91      8.508880   3 C  s         
    56     -7.927874   2 C  px               99     -7.927857   3 C  px        

 Vector   48  Occ=0.000000D+00  E= 1.822764D-01
              MO Center=  9.5D-06, -2.0D-07,  6.2D-01, r^2= 1.3D+01
   Bfn.  Coefficient  Atom+Function         Bfn.  Coefficient  Atom+Function  
  ----- ------------  ---------------      ----- ------------  ---------------
   315      0.921278   8 N  py              186     -0.775265   5 C  py        
   229     -0.775305   6 C  py              204     -0.764265   5 C  dyz       
   247     -0.764243   6 C  dyz              72      0.737048   2 C  dxy       
   115     -0.737065   3 C  dxy              57      0.615980   2 C  py        
   100      0.615875   3 C  py               32     -0.556310   1 C  dyz       

 Vector   49  Occ=0.000000D+00  E= 1.972471D-01
              MO Center=  5.2D-07, -1.6D-07, -7.2D-01, r^2= 1.2D+01
   Bfn.  Coefficient  Atom+Function         Bfn.  Coefficient  Atom+Function  
  ----- ------------  ---------------      ----- ------------  ---------------
   161      3.393961   4 C  dyz             290      2.636028   7 C  dyz       
   201      1.718506   5 C  dxy             244     -1.718509   6 C  dxy       
   272      1.650738   7 C  py               75      1.462446   2 C  dyz       
   118      1.462456   3 C  dyz              32     -1.230949   1 C  dyz       
   413     -1.166516  12 H  py              422     -1.166506  13 H  py        

 Vector   50  Occ=0.000000D+00  E= 2.004801D-01
              MO Center=  1.0D-06, -4.8D-08,  5.5D-01, r^2= 2.1D+01
   Bfn.  Coefficient  Atom+Function         Bfn.  Coefficient  Atom+Function  
  ----- ------------  ---------------      ----- ------------  ---------------
   350    -13.663401   9 N  s               291     12.909106   7 C  dzz       
   162     11.296815   4 C  dzz             264     10.121874   7 C  s         
   178     -8.872539   5 C  s               221     -8.872774   6 C  s         
    28     -5.916967   1 C  dxx             307      5.846120   8 N  s         
    49      5.582187   2 C  s                92      5.582317   3 C  s         

 Vector   51  Occ=0.000000D+00  E= 2.074382D-01
              MO Center=  7.3D-06, -1.2D-07, -1.6D+00, r^2= 1.8D+01
   Bfn.  Coefficient  Atom+Function         Bfn.  Coefficient  Atom+Function  
  ----- ------------  ---------------      ----- ------------  ---------------
   135     24.883093   4 C  s               264    -22.618566   7 C  s         
   350     16.083348   9 N  s                28      6.255837   1 C  dxx       
    49     -5.680711   2 C  s                92     -5.680818   3 C  s         
   162     -5.334336   4 C  dzz               6      4.870386   1 C  s         
   178     -4.306592   5 C  s               221     -4.306458   6 C  s         

 Vector   52  Occ=0.000000D+00  E= 2.200036D-01
              MO Center=  6.6D-06,  5.8D-08, -9.7D-03, r^2= 1.8D+01
   Bfn.  Coefficient  Atom+Function         Bfn.  Coefficient  Atom+Function  
  ----- ------------  ---------------      ----- ------------  ---------------
   159      7.387263   4 C  dxz             408     -6.555839  12 H  s         
   417      6.555863  13 H  s               390      5.595597  10 H  s         
   399     -5.595568  11 H  s               142     -5.434592   4 C  px        
    73     -5.266207   2 C  dxz             116     -5.266193   3 C  dxz       
   187     -4.816346   5 C  pz              230      4.816344   6 C  pz        

 Vector   53  Occ=0.000000D+00  E= 2.297969D-01
              MO Center=  2.0D-05,  1.2D-08,  1.6D+00, r^2= 1.4D+01
   Bfn.  Coefficient  Atom+Function         Bfn.  Coefficient  Atom+Function  
  ----- ------------  ---------------      ----- ------------  ---------------
   158      3.801914   4 C  dxy             186     -3.090128   5 C  py        
   229      3.090079   6 C  py              204      1.425846   5 C  dyz       
   247     -1.425801   6 C  dyz             431      1.188485  14 H  py        
   440     -1.188511  15 H  py              413      1.060165  12 H  py        
   422     -1.060204  13 H  py              330      1.039120   8 N  dxy       

 Vector   54  Occ=0.000000D+00  E= 2.345612D-01
              MO Center= -4.4D-05, -5.7D-07, -3.2D-01, r^2= 1.5D+01
   Bfn.  Coefficient  Atom+Function         Bfn.  Coefficient  Atom+Function  
  ----- ------------  ---------------      ----- ------------  ---------------
   161      5.804634   4 C  dyz             290      4.269147   7 C  dyz       
   272      3.326759   7 C  py              201      2.112254   5 C  dxy       
   244     -2.112263   6 C  dxy              57     -1.432807   2 C  py        
   100     -1.432803   3 C  py              358      1.004447   9 N  py        
    75      0.943009   2 C  dyz             118      0.942934   3 C  dyz       

 Vector   55  Occ=0.000000D+00  E= 2.392724D-01
              MO Center=  3.4D-05,  6.7D-07,  2.2D-01, r^2= 1.6D+01
   Bfn.  Coefficient  Atom+Function         Bfn.  Coefficient  Atom+Function  
  ----- ------------  ---------------      ----- ------------  ---------------
    49      8.935397   2 C  s                92      8.934687   3 C  s         
   264     -7.667442   7 C  s                 6     -6.387850   1 C  s         
   390     -5.737269  10 H  s               399     -5.737889  11 H  s         
   291      5.072890   7 C  dzz             306      4.168054   8 N  s         
   426     -4.083846  14 H  s               435     -4.083705  15 H  s         

 Vector   56  Occ=0.000000D+00  E= 2.427951D-01
              MO Center= -3.3D-05,  2.3D-08,  7.0D-02, r^2= 1.8D+01
   Bfn.  Coefficient  Atom+Function         Bfn.  Coefficient  Atom+Function  
  ----- ------------  ---------------      ----- ------------  ---------------
   408     18.249169  12 H  s               417    -18.249135  13 H  s         
   178     16.034737   5 C  s               221    -16.034686   6 C  s         
    49    -14.266406   2 C  s                92     14.267087   3 C  s         
   390    -13.769028  10 H  s               399     13.768734  11 H  s         
   159     11.151514   4 C  dxz             142     -8.891144   4 C  px        

 Vector   57  Occ=0.000000D+00  E= 2.441635D-01
              MO Center=  1.5D-05, -1.9D-07, -1.1D-01, r^2= 1.4D+01
   Bfn.  Coefficient  Atom+Function         Bfn.  Coefficient  Atom+Function  
  ----- ------------  ---------------      ----- ------------  ---------------
   161      4.467642   4 C  dyz             290      3.375830   7 C  dyz       
   272      2.308877   7 C  py              143     -1.472341   4 C  py        
   204     -1.273010   5 C  dyz             247     -1.272977   6 C  dyz       
    57      1.259901   2 C  py              100      1.259896   3 C  py        
   186     -1.263334   5 C  py              201      1.262378   5 C  dxy       

 Vector   58  Occ=0.000000D+00  E= 2.470937D-01
              MO Center=  7.0D-06,  3.4D-07,  1.1D+00, r^2= 1.6D+01
   Bfn.  Coefficient  Atom+Function         Bfn.  Coefficient  Atom+Function  
  ----- ------------  ---------------      ----- ------------  ---------------
     6     21.278800   1 C  s               162    -11.531298   4 C  dzz       
   291    -10.987657   7 C  dzz             135     10.581007   4 C  s         
   306      8.796665   8 N  s               426     -8.433762  14 H  s         
   435     -8.433882  15 H  s                49     -8.179925   2 C  s         
    92     -8.179261   3 C  s               350      6.276243   9 N  s         

 Vector   59  Occ=0.000000D+00  E= 2.598535D-01
              MO Center= -9.6D-06,  6.0D-08,  7.3D-01, r^2= 1.6D+01
   Bfn.  Coefficient  Atom+Function         Bfn.  Coefficient  Atom+Function  
  ----- ------------  ---------------      ----- ------------  ---------------
    49      7.156338   2 C  s                92     -7.156274   3 C  s         
    71     -4.547412   2 C  dxx             114      4.547280   3 C  dxx       
   426      4.527532  14 H  s               435     -4.527206  15 H  s         
   288     -3.097718   7 C  dxz             159     -2.125288   4 C  dxz       
    74     -1.985884   2 C  dyy             117      1.985873   3 C  dyy       

 Vector   60  Occ=0.000000D+00  E= 2.652461D-01
              MO Center=  3.4D-06,  2.9D-07,  8.5D-01, r^2= 1.6D+01
   Bfn.  Coefficient  Atom+Function         Bfn.  Coefficient  Atom+Function  
  ----- ------------  ---------------      ----- ------------  ---------------
   306     11.392916   8 N  s               426    -10.179856  14 H  s         
   435    -10.179999  15 H  s                 6      9.537293   1 C  s         
   408     -9.488939  12 H  s               417     -9.488978  13 H  s         
   264      8.908322   7 C  s                28      7.912385   1 C  dxx       
   307     -7.663831   8 N  s               135     -6.410374   4 C  s         

 Vector   61  Occ=0.000000D+00  E= 2.753782D-01
              MO Center=  4.5D-08, -1.6D-07,  5.4D-01, r^2= 1.4D+01
   Bfn.  Coefficient  Atom+Function         Bfn.  Coefficient  Atom+Function  
  ----- ------------  ---------------      ----- ------------  ---------------
   307     13.345228   8 N  s               178     12.428561   5 C  s         
   221     12.428591   6 C  s                49     -6.978032   2 C  s         
    92     -6.978116   3 C  s                 6     -6.759192   1 C  s         
   135     -6.352724   4 C  s               264     -4.358278   7 C  s         
   350      4.240442   9 N  s               408     -3.316446  12 H  s         

 Vector   62  Occ=0.000000D+00  E= 2.807054D-01
              MO Center= -4.0D-06,  4.0D-07, -1.5D-01, r^2= 1.7D+01
   Bfn.  Coefficient  Atom+Function         Bfn.  Coefficient  Atom+Function  
  ----- ------------  ---------------      ----- ------------  ---------------
   178      6.953683   5 C  s               221     -6.954053   6 C  s         
   159      6.884679   4 C  dxz             271      5.000955   7 C  px        
   288      5.005149   7 C  dxz             142     -4.975339   4 C  px        
    73     -4.288349   2 C  dxz             116     -4.288363   3 C  dxz       
   200     -4.022402   5 C  dxx             243      4.022422   6 C  dxx       

 Vector   63  Occ=0.000000D+00  E= 2.812824D-01
              MO Center= -8.9D-06, -4.4D-07, -9.1D-01, r^2= 1.3D+01
   Bfn.  Coefficient  Atom+Function         Bfn.  Coefficient  Atom+Function  
  ----- ------------  ---------------      ----- ------------  ---------------
   158      4.765474   4 C  dxy             204      2.174722   5 C  dyz       
   247     -2.174757   6 C  dyz             201      2.037851   5 C  dxy       
   244      2.037834   6 C  dxy              57     -1.893007   2 C  py        
   100      1.893022   3 C  py              287     -1.889522   7 C  dxy       
   186     -1.449868   5 C  py              229      1.449827   6 C  py        

 Vector   64  Occ=0.000000D+00  E= 2.829776D-01
              MO Center= -6.4D-07, -4.5D-08,  1.2D+00, r^2= 1.6D+01
   Bfn.  Coefficient  Atom+Function         Bfn.  Coefficient  Atom+Function  
  ----- ------------  ---------------      ----- ------------  ---------------
   307     15.622970   8 N  s               390     -9.468613  10 H  s         
   399     -9.468539  11 H  s               264     -8.068435   7 C  s         
     6     -7.330215   1 C  s               273      7.169369   7 C  pz        
    76     -6.475788   2 C  dzz             119     -6.475793   3 C  dzz       
   426     -6.415434  14 H  s               435     -6.415654  15 H  s         

 Vector   65  Occ=0.000000D+00  E= 2.926891D-01
              MO Center=  2.3D-06, -3.6D-07,  1.0D+00, r^2= 8.1D+00
   Bfn.  Coefficient  Atom+Function         Bfn.  Coefficient  Atom+Function  
  ----- ------------  ---------------      ----- ------------  ---------------
    32      4.317126   1 C  dyz             272      2.704152   7 C  py        
   143     -2.542009   4 C  py              161      2.364701   4 C  dyz       
   290      1.960304   7 C  dyz              57      1.631657   2 C  py        
   100      1.631680   3 C  py              333      1.416768   8 N  dyz       
   431     -0.870177  14 H  py              440     -0.870182  15 H  py        

 Vector   66  Occ=0.000000D+00  E= 3.049777D-01
              MO Center=  1.9D-05,  2.5D-07,  9.9D-01, r^2= 1.6D+01
   Bfn.  Coefficient  Atom+Function         Bfn.  Coefficient  Atom+Function  
  ----- ------------  ---------------      ----- ------------  ---------------
   135     23.699888   4 C  s               264    -12.840130   7 C  s         
   162     12.224311   4 C  dzz              28      9.387069   1 C  dxx       
   291      9.191518   7 C  dzz             349     -8.638523   9 N  s         
    15     -8.388554   1 C  pz              390     -8.133919  10 H  s         
   399     -8.134094  11 H  s               307     -6.938244   8 N  s         

 Vector   67  Occ=0.000000D+00  E= 3.087876D-01
              MO Center= -5.3D-06,  5.2D-08,  2.0D+00, r^2= 1.4D+01
   Bfn.  Coefficient  Atom+Function         Bfn.  Coefficient  Atom+Function  
  ----- ------------  ---------------      ----- ------------  ---------------
   426     13.875853  14 H  s               435    -13.875569  15 H  s         
    30      9.949268   1 C  dxz             178     -5.825010   5 C  s         
   221      5.824293   6 C  s                13      4.612547   1 C  px        
   202     -4.630496   5 C  dxz             245     -4.630669   6 C  dxz       
   142      4.184058   4 C  px              200      3.858825   5 C  dxx       

 Vector   68  Occ=0.000000D+00  E= 3.112014D-01
              MO Center=  8.0D-06,  1.7D-07,  2.9D-01, r^2= 1.1D+01
   Bfn.  Coefficient  Atom+Function         Bfn.  Coefficient  Atom+Function  
  ----- ------------  ---------------      ----- ------------  ---------------
   161      6.861329   4 C  dyz             186     -4.160670   5 C  py        
   229     -4.160662   6 C  py              204     -2.920059   5 C  dyz       
   247     -2.920061   6 C  dyz             272      2.798276   7 C  py        
   290      2.586111   7 C  dyz              32     -2.443769   1 C  dyz       
    72      2.420085   2 C  dxy             115     -2.420066   3 C  dxy       

 Vector   69  Occ=0.000000D+00  E= 3.130359D-01
              MO Center=  2.0D-06,  7.1D-08,  8.4D-02, r^2= 1.5D+01
   Bfn.  Coefficient  Atom+Function         Bfn.  Coefficient  Atom+Function  
  ----- ------------  ---------------      ----- ------------  ---------------
     6     29.431570   1 C  s               135    -20.918945   4 C  s         
    49    -14.102586   2 C  s                92    -14.102609   3 C  s         
   291     13.287759   7 C  dzz             307    -12.654627   8 N  s         
   178     12.329179   5 C  s               221     12.329372   6 C  s         
   162     11.356207   4 C  dzz             408    -11.017201  12 H  s         

 Vector   70  Occ=0.000000D+00  E= 3.158180D-01
              MO Center= -1.9D-05,  9.2D-08,  1.7D-01, r^2= 1.4D+01
   Bfn.  Coefficient  Atom+Function         Bfn.  Coefficient  Atom+Function  
  ----- ------------  ---------------      ----- ------------  ---------------
   408      8.991295  12 H  s               417     -8.991380  13 H  s         
    49      6.500546   2 C  s                92     -6.500739   3 C  s         
   159      4.895251   4 C  dxz              71     -4.390727   2 C  dxx       
   114      4.390663   3 C  dxx             185     -4.327446   5 C  px        
   228     -4.327453   6 C  px              202      3.941210   5 C  dxz       

 Vector   71  Occ=0.000000D+00  E= 3.323305D-01
              MO Center= -5.8D-06, -3.5D-07,  1.2D-01, r^2= 1.6D+01
   Bfn.  Coefficient  Atom+Function         Bfn.  Coefficient  Atom+Function  
  ----- ------------  ---------------      ----- ------------  ---------------
   349     11.167776   9 N  s               178     -9.883901   5 C  s         
   221     -9.883946   6 C  s               135      9.559373   4 C  s         
   162     -8.920694   4 C  dzz              33     -7.665564   1 C  dzz       
   426      7.622419  14 H  s               435      7.622564  15 H  s         
   273      7.106548   7 C  pz              291     -7.091705   7 C  dzz       

 Vector   72  Occ=0.000000D+00  E= 3.418007D-01
              MO Center=  1.4D-06, -4.1D-07,  6.3D-01, r^2= 1.4D+01
   Bfn.  Coefficient  Atom+Function         Bfn.  Coefficient  Atom+Function  
  ----- ------------  ---------------      ----- ------------  ---------------
   135     20.979402   4 C  s               264    -12.752178   7 C  s         
   162    -12.349981   4 C  dzz               6    -11.821771   1 C  s         
   349     10.019210   9 N  s                33      7.381764   1 C  dzz       
   307      7.226126   8 N  s               426     -6.839466  14 H  s         
   435     -6.839509  15 H  s               291     -6.710777   7 C  dzz       

 Vector   73  Occ=0.000000D+00  E= 3.452856D-01
              MO Center=  4.1D-04, -3.7D-08,  2.6D-01, r^2= 1.6D+01
   Bfn.  Coefficient  Atom+Function         Bfn.  Coefficient  Atom+Function  
  ----- ------------  ---------------      ----- ------------  ---------------
   158      8.518818   4 C  dxy             204      3.837864   5 C  dyz       
   247     -3.837903   6 C  dyz             186     -3.744034   5 C  py        
   229      3.742475   6 C  py               29     -3.503335   1 C  dxy       
   287     -2.680915   7 C  dxy              75      2.567941   2 C  dyz       
   118     -2.568180   3 C  dyz             201      1.860360   5 C  dxy       

 Vector   74  Occ=0.000000D+00  E= 3.460936D-01
              MO Center= -4.1D-04,  3.6D-07,  6.8D-01, r^2= 1.2D+01
   Bfn.  Coefficient  Atom+Function         Bfn.  Coefficient  Atom+Function  
  ----- ------------  ---------------      ----- ------------  ---------------
    32      7.196599   1 C  dyz              14     -4.848544   1 C  py        
   143      4.850587   4 C  py               57      4.505465   2 C  py        
   100      4.506086   3 C  py              186     -4.089515   5 C  py        
   229     -4.090995   6 C  py               72     -3.863569   2 C  dxy       
   115      3.863673   3 C  dxy             161      2.896627   4 C  dyz       

 Vector   75  Occ=0.000000D+00  E= 3.590914D-01
              MO Center=  1.2D-05,  6.8D-08,  1.1D+00, r^2= 1.3D+01
   Bfn.  Coefficient  Atom+Function         Bfn.  Coefficient  Atom+Function  
  ----- ------------  ---------------      ----- ------------  ---------------
   390     24.775750  10 H  s               399    -24.775391  11 H  s         
   408     18.281539  12 H  s               417    -18.280405  13 H  s         
    56    -12.310091   2 C  px               99    -12.309777   3 C  px        
    48    -11.792527   2 C  s                91     11.792316   3 C  s         
   177    -11.719248   5 C  s               220     11.718828   6 C  s         

 Vector   76  Occ=0.000000D+00  E= 3.602444D-01
              MO Center= -5.7D-06, -3.3D-08,  6.0D-01, r^2= 1.0D+01
   Bfn.  Coefficient  Atom+Function         Bfn.  Coefficient  Atom+Function  
  ----- ------------  ---------------      ----- ------------  ---------------
     6     13.755791   1 C  s                49    -10.706803   2 C  s         
    92    -10.707055   3 C  s               408    -10.732636  12 H  s         
   417    -10.734453  13 H  s               306      8.152239   8 N  s         
   134      6.155196   4 C  s               202     -5.972071   5 C  dxz       
   245      5.972381   6 C  dxz             162     -5.775921   4 C  dzz       

 Vector   77  Occ=0.000000D+00  E= 3.752290D-01
              MO Center=  6.7D-04, -3.5D-10,  5.3D-01, r^2= 1.8D+01
   Bfn.  Coefficient  Atom+Function         Bfn.  Coefficient  Atom+Function  
  ----- ------------  ---------------      ----- ------------  ---------------
   408      6.997286  12 H  s               417     -6.988901  13 H  s         
    49      6.622439   2 C  s                92     -6.616871   3 C  s         
   185     -4.888405   5 C  px              228     -4.888526   6 C  px        
   390      4.552089  10 H  s               399     -4.545506  11 H  s         
   178     -4.416112   5 C  s               221      4.416236   6 C  s         

 Vector   78  Occ=0.000000D+00  E= 3.752812D-01
              MO Center= -6.6D-04,  1.2D-06, -5.8D-01, r^2= 1.5D+01
   Bfn.  Coefficient  Atom+Function         Bfn.  Coefficient  Atom+Function  
  ----- ------------  ---------------      ----- ------------  ---------------
   162     30.189228   4 C  dzz             349    -22.681380   9 N  s         
   291     22.081610   7 C  dzz             306    -12.624716   8 N  s         
     6     -9.684111   1 C  s                28     -9.414240   1 C  dxx       
    58      9.420637   2 C  pz              101      9.419409   3 C  pz        
   307      9.400240   8 N  s               350     -8.621052   9 N  s         

 Vector   79  Occ=0.000000D+00  E= 3.789274D-01
              MO Center=  1.1D-06,  2.6D-07, -6.1D-01, r^2= 1.8D+01
   Bfn.  Coefficient  Atom+Function         Bfn.  Coefficient  Atom+Function  
  ----- ------------  ---------------      ----- ------------  ---------------
   135     29.203487   4 C  s               291     26.747653   7 C  dzz       
   162     21.675944   4 C  dzz             264    -18.045179   7 C  s         
   349    -16.267318   9 N  s                33    -11.901561   1 C  dzz       
   307     11.412454   8 N  s               390     -9.572754  10 H  s         
   399     -9.572635  11 H  s                56      8.811121   2 C  px        

 Vector   80  Occ=0.000000D+00  E= 3.869791D-01
              MO Center=  5.6D-06, -8.8D-07, -1.1D+00, r^2= 1.2D+01
   Bfn.  Coefficient  Atom+Function         Bfn.  Coefficient  Atom+Function  
  ----- ------------  ---------------      ----- ------------  ---------------
   161      6.341434   4 C  dyz             143      6.140397   4 C  py        
   201      4.438074   5 C  dxy             244     -4.438078   6 C  dxy       
   272      3.004223   7 C  py              186     -2.473946   5 C  py        
   229     -2.473961   6 C  py               32     -2.290593   1 C  dyz       
    14      2.012317   1 C  py              290     -1.794946   7 C  dyz       

 Vector   81  Occ=0.000000D+00  E= 3.911705D-01
              MO Center=  9.0D-06,  9.4D-08,  6.6D-01, r^2= 1.2D+01
   Bfn.  Coefficient  Atom+Function         Bfn.  Coefficient  Atom+Function  
  ----- ------------  ---------------      ----- ------------  ---------------
    29      8.385590   1 C  dxy              72      5.075911   2 C  dxy       
   115      5.075884   3 C  dxy             395     -2.480046  10 H  py        
   404      2.480028  11 H  py               57     -2.098805   2 C  py        
   100      2.098834   3 C  py               75     -1.808955   2 C  dyz       
   118      1.808965   3 C  dyz             158      1.688220   4 C  dxy       

 Vector   82  Occ=0.000000D+00  E= 3.990993D-01
              MO Center=  1.2D-05, -4.1D-08,  1.2D+00, r^2= 1.3D+01
   Bfn.  Coefficient  Atom+Function         Bfn.  Coefficient  Atom+Function  
  ----- ------------  ---------------      ----- ------------  ---------------
   408      9.252043  12 H  s               417     -9.251728  13 H  s         
   159      7.869768   4 C  dxz              76     -7.562091   2 C  dzz       
   119      7.562000   3 C  dzz             271      6.242595   7 C  px        
    13      6.181592   1 C  px              178      6.083180   5 C  s         
   221     -6.083116   6 C  s                71      5.690083   2 C  dxx       

 Vector   83  Occ=0.000000D+00  E= 4.065734D-01
              MO Center= -2.2D-05, -3.4D-08, -3.6D-01, r^2= 1.4D+01
   Bfn.  Coefficient  Atom+Function         Bfn.  Coefficient  Atom+Function  
  ----- ------------  ---------------      ----- ------------  ---------------
     6     15.803161   1 C  s               291     14.995102   7 C  dzz       
   349    -13.624229   9 N  s               162      9.647795   4 C  dzz       
    49     -7.431584   2 C  s                92     -7.431507   3 C  s         
    33     -6.875300   1 C  dzz             205      6.728860   5 C  dzz       
   248      6.729169   6 C  dzz             307     -6.487171   8 N  s         

 Vector   84  Occ=0.000000D+00  E= 4.165741D-01
              MO Center= -5.9D-06, -1.6D-07,  2.2D-01, r^2= 1.5D+01
   Bfn.  Coefficient  Atom+Function         Bfn.  Coefficient  Atom+Function  
  ----- ------------  ---------------      ----- ------------  ---------------
   162     13.373507   4 C  dzz             291     12.885354   7 C  dzz       
   349    -11.073081   9 N  s               135     -9.609604   4 C  s         
     6     -8.834398   1 C  s                49      5.041706   2 C  s         
    92      5.041648   3 C  s               178      4.322889   5 C  s         
   221      4.322981   6 C  s                56      4.268499   2 C  px        

 Vector   85  Occ=0.000000D+00  E= 4.201424D-01
              MO Center=  1.4D-05, -1.9D-07,  7.5D-01, r^2= 1.4D+01
   Bfn.  Coefficient  Atom+Function         Bfn.  Coefficient  Atom+Function  
  ----- ------------  ---------------      ----- ------------  ---------------
   201      9.504840   5 C  dxy             244      9.504636   6 C  dxy       
    72     -8.009327   2 C  dxy             115     -8.009252   3 C  dxy       
   158      6.315638   4 C  dxy             186     -4.835484   5 C  py        
   229      4.835351   6 C  py              413     -4.406611  12 H  py        
   422      4.406508  13 H  py               75     -4.147399   2 C  dyz       

 Vector   86  Occ=0.000000D+00  E= 4.216053D-01
              MO Center=  3.3D-05,  1.2D-07,  1.7D-01, r^2= 1.4D+01
   Bfn.  Coefficient  Atom+Function         Bfn.  Coefficient  Atom+Function  
  ----- ------------  ---------------      ----- ------------  ---------------
   142     17.328328   4 C  px              408    -14.006811  12 H  s         
   417     14.007489  13 H  s               200     10.915671   5 C  dxx       
   243    -10.915757   6 C  dxx             426    -10.623034  14 H  s         
   435     10.622184  15 H  s               390    -10.485311  10 H  s         
   399     10.486127  11 H  s               159     -9.257225   4 C  dxz       

 Vector   87  Occ=0.000000D+00  E= 4.222833D-01
              MO Center= -2.9D-05, -3.2D-07,  4.8D-01, r^2= 1.4D+01
[...]
     Occ.   31  a   ---  Virt.   39  a       -0.06400
     Occ.   31  a   ---  Virt.   45  a       -0.06960
     Occ.   31  a   ---  Virt.   50  a        0.06429
     Occ.   31  a   ---  Virt.   55  a        0.05751
     Occ.   31  a   ---  Virt.   58  a        0.07534
  ----------------------------------------------------------------------------
  Root   4 singlet a              0.235102617 a.u.                6.3975 eV 
  ----------------------------------------------------------------------------
     Transition Moments    X -0.00001   Y  0.00055   Z -0.00000
     Transition Moments   XX  0.00002  XY -0.52951  XZ -0.00003
     Transition Moments   YY  0.00002  YZ  0.00317  ZZ  0.00008
     Dipole Oscillator Strength                    0.0000000479
     Electric Quadrupole                           0.0000000194
     Magnetic Dipole                               0.0000000617
     Total Oscillator Strength                     0.0000001290

     Occ.   29  a   ---  Virt.   36  a       -0.13522
     Occ.   29  a   ---  Virt.   38  a        0.06991
     Occ.   29  a   ---  Virt.   40  a        0.11418
     Occ.   30  a   ---  Virt.   34  a        0.16197
     Occ.   31  a   ---  Virt.   36  a       -0.90411
     Occ.   31  a   ---  Virt.   38  a        0.25754
     Occ.   31  a   ---  Virt.   40  a       -0.10549
     Occ.   31  a   ---  Virt.   43  a        0.12009
     Occ.   31  a   ---  Virt.   59  a        0.11406
  ----------------------------------------------------------------------------
  Root   5 singlet a              0.235160822 a.u.                6.3991 eV 
  ----------------------------------------------------------------------------
     Transition Moments    X  0.00001   Y -0.21206   Z  0.00001
     Transition Moments   XX -0.00005  XY -0.00140  XZ -0.00001
     Transition Moments   YY -0.00003  YZ -1.19495  ZZ  0.00005
     Dipole Oscillator Strength                    0.0070502955
     Electric Quadrupole                           0.0000000989
     Magnetic Dipole                               0.0000003767
     Total Oscillator Strength                     0.0070507711

     Occ.   25  a   ---  Virt.   34  a       -0.07317
     Occ.   29  a   ---  Virt.   34  a        0.12888
     Occ.   29  a   ---  Virt.   37  a        0.10717
     Occ.   29  a   ---  Virt.   39  a       -0.06357
     Occ.   31  a   ---  Virt.   34  a       -0.17856
     Occ.   31  a   ---  Virt.   35  a        0.92040
     Occ.   31  a   ---  Virt.   39  a       -0.21013
     Occ.   31  a   ---  Virt.   45  a       -0.06130
     Occ.   31  a   ---  Virt.   51  a       -0.13731
  ----------------------------------------------------------------------------
  Root   6 singlet a              0.244828982 a.u.                6.6621 eV 
  ----------------------------------------------------------------------------
     Transition Moments    X -1.34272   Y -0.00000   Z -0.00002
     Transition Moments   XX -0.00006  XY -0.00001  XZ -0.71555
     Transition Moments   YY  0.00000  YZ -0.00001  ZZ  0.00018
     Dipole Oscillator Strength                    0.2942695282
     Electric Quadrupole                           0.0000000400
     Magnetic Dipole                               0.0000003716
     Total Oscillator Strength                     0.2942699399

     Occ.   25  a   ---  Virt.   33  a        0.15971
     Occ.   29  a   ---  Virt.   33  a       -0.28000
     Occ.   30  a   ---  Virt.   32  a       -0.83193
     Occ.   30  a   ---  Virt.   65  a        0.05442
     Occ.   31  a   ---  Virt.   33  a       -0.39312
     Occ.   31  a   ---  Virt.   46  a       -0.08631
  ----------------------------------------------------------------------------
  Root   7 singlet a              0.247111809 a.u.                6.7243 eV 
  ----------------------------------------------------------------------------
     Transition Moments    X  0.00001   Y  0.00000   Z  0.00000
     Transition Moments   XX  0.00002  XY  0.02213  XZ  0.00001
     Transition Moments   YY -0.00000  YZ -0.00001  ZZ -0.00007
     Dipole Oscillator Strength                    0.0000000000
     Electric Quadrupole                           0.0000000000
     Magnetic Dipole                               0.0000002248
     Total Oscillator Strength                     0.0000002249

     Occ.   25  a   ---  Virt.   40  a        0.08178
     Occ.   28  a   ---  Virt.   32  a        0.27370
     Occ.   28  a   ---  Virt.   42  a        0.09077
     Occ.   29  a   ---  Virt.   38  a       -0.15722
     Occ.   29  a   ---  Virt.   40  a        0.39104
     Occ.   31  a   ---  Virt.   36  a        0.20504
     Occ.   31  a   ---  Virt.   38  a        0.30530
     Occ.   31  a   ---  Virt.   40  a       -0.76058
  ----------------------------------------------------------------------------
  Root   8 singlet a              0.257485144 a.u.                7.0065 eV 
  ----------------------------------------------------------------------------
     Transition Moments    X  0.00000   Y  0.00001   Z -0.00015
     Transition Moments   XX -0.00082  XY -0.17997  XZ -0.00007
     Transition Moments   YY -0.00006  YZ -0.00004  ZZ  0.00279
     Dipole Oscillator Strength                    0.0000000039
     Electric Quadrupole                           0.0000000029
     Magnetic Dipole                               0.0000002804
     Total Oscillator Strength                     0.0000002872

     Occ.   26  a   ---  Virt.   42  a        0.08367
     Occ.   26  a   ---  Virt.   48  a        0.05333
     Occ.   28  a   ---  Virt.   32  a       -0.90447
     Occ.   28  a   ---  Virt.   42  a       -0.24187
     Occ.   28  a   ---  Virt.   48  a       -0.08974
     Occ.   28  a   ---  Virt.   49  a       -0.05485
     Occ.   29  a   ---  Virt.   40  a        0.09270
     Occ.   31  a   ---  Virt.   38  a        0.13283
     Occ.   31  a   ---  Virt.   40  a       -0.24411

              Target root =      1
          Target symmetry = none
      Ground state energy =   -379.639578828897
        Excitation energy =      0.176452683904
     Excited state energy =   -379.463126144992

  stored tddft:energy   -379.46312614499232     

    8 smallest eigenvalue differences (eV) 
--------------------------------------------------------
  No. Spin  Occ  Vir  Irrep   E(Occ)    E(Vir)   E(Diff)
--------------------------------------------------------
    1    1   31   32 a        -0.305     0.027     9.038
    2    1   31   33 a        -0.305     0.038     9.321
    3    1   31   34 a        -0.305     0.045     9.525
    4    1   31   35 a        -0.305     0.064    10.035
    5    1   31   36 a        -0.305     0.066    10.081
    6    1   30   32 a        -0.366     0.027    10.690
    7    1   31   37 a        -0.305     0.095    10.873
    8    1   31   38 a        -0.305     0.095    10.890
--------------------------------------------------------

  Entering Davidson iterations
  Restricted triplet excited states

  Iter   NTrls   NConv    DeltaV     DeltaE      Time   
  ----  ------  ------  ---------  ---------  --------- 
    1      8       0     0.62E-01   0.10+100      235.0
    2     16       0     0.24E-01   0.15E-01      236.1
    3     24       0     0.51E-01   0.19E-01      237.5
    4     32       0     0.10E+00   0.32E-01      236.9
    5     40       0     0.38E-01   0.11E-01      237.0
    6     48       1     0.14E-01   0.15E-02      238.4
    7     55       3     0.11E-01   0.57E-03      227.5
    8     60       3     0.47E-01   0.70E-02      206.2
    9     65       5     0.36E-01   0.37E-02      207.6
   10     68       5     0.24E-01   0.17E-02      185.4
   11     71       5     0.12E-01   0.46E-03      185.3
   12     74       6     0.33E-02   0.69E-04      185.9
   13     76       7     0.80E-03   0.38E-05      173.6
   14     77       7     0.21E-03   0.20E-06      163.7
   15     78       8     0.51E-04   0.13E-07      163.1
  ----  ------  ------  ---------  ---------  --------- 
  Convergence criterion met

  Ground state a        -379.639578828897 a.u.

  ----------------------------------------------------------------------------
  Root   1 triplet a              0.128354087 a.u.                3.4927 eV 
  ----------------------------------------------------------------------------
     Transition Moments                    Spin forbidden
     Oscillator Strength                   Spin forbidden

     Occ.   25  a   ---  Virt.   32  a       -0.10054
     Occ.   29  a   ---  Virt.   32  a        0.08882
     Occ.   29  a   ---  Virt.   42  a        0.10470
     Occ.   30  a   ---  Virt.   33  a       -0.18778
     Occ.   31  a   ---  Virt.   32  a       -0.94966
     Occ.   31  a   ---  Virt.   42  a        0.06405
     Occ.   31  a   ---  Virt.   48  a        0.05249
     Occ.   31  a   ---  Virt.   49  a        0.08107
  ----------------------------------------------------------------------------
  Root   2 triplet a              0.143317706 a.u.                3.8999 eV 
  ----------------------------------------------------------------------------
     Transition Moments                    Spin forbidden
     Oscillator Strength                   Spin forbidden

     Occ.   25  a   ---  Virt.   33  a        0.14011
     Occ.   31  a   ---  Virt.   33  a        0.98207
     Occ.   31  a   ---  Virt.   53  a        0.05120
  ----------------------------------------------------------------------------
  Root   3 triplet a              0.168078447 a.u.                4.5736 eV 
  ----------------------------------------------------------------------------
     Transition Moments                    Spin forbidden
     Oscillator Strength                   Spin forbidden

     Occ.   23  a   ---  Virt.   32  a       -0.05152
     Occ.   23  a   ---  Virt.   42  a       -0.05109
     Occ.   29  a   ---  Virt.   32  a        0.06763
     Occ.   30  a   ---  Virt.   33  a       -0.95707
     Occ.   30  a   ---  Virt.   53  a       -0.08142
     Occ.   30  a   ---  Virt.   63  a        0.05350
     Occ.   31  a   ---  Virt.   32  a        0.21587
  ----------------------------------------------------------------------------
  Root   4 triplet a              0.187032774 a.u.                5.0894 eV 
  ----------------------------------------------------------------------------
     Transition Moments                    Spin forbidden
     Oscillator Strength                   Spin forbidden

     Occ.   23  a   ---  Virt.   33  a       -0.07993
     Occ.   29  a   ---  Virt.   33  a        0.11829
     Occ.   30  a   ---  Virt.   32  a       -0.97675
     Occ.   30  a   ---  Virt.   48  a        0.09081
     Occ.   30  a   ---  Virt.   49  a        0.05416
     Occ.   30  a   ---  Virt.   57  a        0.05944
     Occ.   30  a   ---  Virt.   68  a       -0.07125
  ----------------------------------------------------------------------------
  Root   5 triplet a              0.199504934 a.u.                5.4288 eV 
  ----------------------------------------------------------------------------
     Transition Moments                    Spin forbidden
     Oscillator Strength                   Spin forbidden

     Occ.   25  a   ---  Virt.   34  a       -0.06755
     Occ.   25  a   ---  Virt.   35  a       -0.06320
     Occ.   29  a   ---  Virt.   34  a        0.22015
     Occ.   29  a   ---  Virt.   35  a        0.12798
     Occ.   30  a   ---  Virt.   36  a       -0.05830
     Occ.   31  a   ---  Virt.   34  a        0.90419
     Occ.   31  a   ---  Virt.   35  a        0.24408
     Occ.   31  a   ---  Virt.   37  a        0.07009
     Occ.   31  a   ---  Virt.   45  a        0.06980
     Occ.   31  a   ---  Virt.   50  a       -0.08945
     Occ.   31  a   ---  Virt.   55  a       -0.06385
     Occ.   31  a   ---  Virt.   58  a       -0.09122
  ----------------------------------------------------------------------------
  Root   6 triplet a              0.214721207 a.u.                5.8429 eV 
  ----------------------------------------------------------------------------
     Transition Moments                    Spin forbidden
     Oscillator Strength                   Spin forbidden

     Occ.   25  a   ---  Virt.   32  a       -0.14674
     Occ.   25  a   ---  Virt.   42  a       -0.13527
     Occ.   25  a   ---  Virt.   48  a       -0.08755
     Occ.   26  a   ---  Virt.   40  a       -0.06735
     Occ.   28  a   ---  Virt.   38  a       -0.06572
     Occ.   28  a   ---  Virt.   40  a        0.20893
     Occ.   29  a   ---  Virt.   32  a       -0.74890
     Occ.   29  a   ---  Virt.   42  a       -0.17886
     Occ.   29  a   ---  Virt.   48  a       -0.12182
     Occ.   29  a   ---  Virt.   57  a       -0.05542
     Occ.   29  a   ---  Virt.   80  a       -0.05214
     Occ.   31  a   ---  Virt.   42  a        0.45645
     Occ.   31  a   ---  Virt.   48  a        0.13591
     Occ.   31  a   ---  Virt.   49  a        0.14835
     Occ.   31  a   ---  Virt.   54  a       -0.09198
  ----------------------------------------------------------------------------
  Root   7 triplet a              0.227464040 a.u.                6.1896 eV 
  ----------------------------------------------------------------------------
     Transition Moments                    Spin forbidden
     Oscillator Strength                   Spin forbidden

     Occ.   25  a   ---  Virt.   38  a       -0.05629
     Occ.   25  a   ---  Virt.   40  a        0.14527
     Occ.   26  a   ---  Virt.   42  a        0.06224
     Occ.   28  a   ---  Virt.   32  a       -0.44066
     Occ.   28  a   ---  Virt.   42  a       -0.18734
     Occ.   28  a   ---  Virt.   48  a       -0.09979
     Occ.   29  a   ---  Virt.   38  a       -0.10283
     Occ.   29  a   ---  Virt.   40  a        0.42584
     Occ.   30  a   ---  Virt.   34  a        0.05869
     Occ.   31  a   ---  Virt.   36  a       -0.31223
     Occ.   31  a   ---  Virt.   38  a        0.30323
     Occ.   31  a   ---  Virt.   40  a       -0.55853
     Occ.   31  a   ---  Virt.   43  a        0.08345
     Occ.   31  a   ---  Virt.   59  a        0.05039
  ----------------------------------------------------------------------------
  Root   8 triplet a              0.231359111 a.u.                6.2956 eV 
  ----------------------------------------------------------------------------
     Transition Moments                    Spin forbidden
     Oscillator Strength                   Spin forbidden

     Occ.   25  a   ---  Virt.   34  a        0.08291
     Occ.   29  a   ---  Virt.   34  a       -0.11870
     Occ.   29  a   ---  Virt.   37  a       -0.11234
     Occ.   29  a   ---  Virt.   39  a        0.07066
     Occ.   31  a   ---  Virt.   34  a        0.27472
     Occ.   31  a   ---  Virt.   35  a       -0.87805
     Occ.   31  a   ---  Virt.   39  a        0.24496
     Occ.   31  a   ---  Virt.   45  a        0.06549
     Occ.   31  a   ---  Virt.   50  a        0.05915
     Occ.   31  a   ---  Virt.   51  a        0.15334
     Occ.   31  a   ---  Virt.   60  a        0.06053

              Target root =      1
          Target symmetry = none
      Ground state energy =   -379.639578828897
        Excitation energy =      0.128354087067
     Excited state energy =   -379.511224741829

  stored tddft:energy   -379.51122474182927     

 Task  times  cpu:     7069.7s     wall:     8339.5s


                                NWChem Input Module
                                -------------------


 Summary of allocated global arrays
-----------------------------------
  No active global arrays


MA_summarize_allocated_blocks: starting scan ...
heap block 'gridpts', handle 102, address 0x135e1730:
	type of elements:		double precision
	number of elements:		5242763592
	address of client space:	0x135e17c0
	index for client space:		12459599
	total number of bytes:		41942108888
MA_summarize_allocated_blocks: scan completed: 1 heap block, 0 stack blocks
MA usage statistics:

	allocation statistics:
					      heap	     stack
					      ----	     -----
	current number of blocks	         1	         0
	maximum number of blocks	        18	        53
	current total bytes		41942108888	         0
	maximum total bytes		41943902928	  45418392
	maximum total K-bytes		  41943903	     45419
	maximum total M-bytes		     41944	        46


                                     CITATION
                                     --------
                Please cite the following reference when publishing
                           results obtained with NWChem:

          E. Apra, E. J. Bylaska, W. A. de Jong, N. Govind, K. Kowalski,
       T. P. Straatsma, M. Valiev, H. J. J. van Dam, Y. Alexeev, J. Anchell,
       V. Anisimov, F. W. Aquino, R. Atta-Fynn, J. Autschbach, N. P. Bauman,
     J. C. Becca, D. E. Bernholdt, K. Bhaskaran-Nair, S. Bogatko, P. Borowski,
         J. Boschen, J. Brabec, A. Bruner, E. Cauet, Y. Chen, G. N. Chuev,
      C. J. Cramer, J. Daily, M. J. O. Deegan, T. H. Dunning Jr., M. Dupuis,
   K. G. Dyall, G. I. Fann, S. A. Fischer, A. Fonari, H. Fruchtl, L. Gagliardi,
      J. Garza, N. Gawande, S. Ghosh, K. Glaesemann, A. W. Gotz, J. Hammond,
       V. Helms, E. D. Hermes, K. Hirao, S. Hirata, M. Jacquelin, L. Jensen,
   B. G. Johnson, H. Jonsson, R. A. Kendall, M. Klemm, R. Kobayashi, V. Konkov,
      S. Krishnamoorthy, M. Krishnan, Z. Lin, R. D. Lins, R. J. Littlefield,
      A. J. Logsdail, K. Lopata, W. Ma, A. V. Marenich, J. Martin del Campo,
   D. Mejia-Rodriguez, J. E. Moore, J. M. Mullin, T. Nakajima, D. R. Nascimento,
    J. A. Nichols, P. J. Nichols, J. Nieplocha, A. Otero-de-la-Roza, B. Palmer,
    A. Panyala, T. Pirojsirikul, B. Peng, R. Peverati, J. Pittner, L. Pollack,
   R. M. Richard, P. Sadayappan, G. C. Schatz, W. A. Shelton, D. W. Silverstein,
   D. M. A. Smith, T. A. Soares, D. Song, M. Swart, H. L. Taylor, G. S. Thomas,
            V. Tipparaju, D. G. Truhlar, K. Tsemekhman, T. Van Voorhis,
      A. Vazquez-Mayagoitia, P. Verma, O. Villa, A. Vishnu, K. D. Vogiatzis,
        D. Wang, J. H. Weare, M. J. Williamson, T. L. Windus, K. Wolinski,
        A. T. Wong, Q. Wu, C. Yang, Q. Yu, M. Zacharias, Z. Zhang, Y. Zhao,
                                and R. J. Harrison
                        "NWChem: Past, present, and future
                         J. Chem. Phys. 152, 184102 (2020)
                               doi:10.1063/5.0004997

                                      AUTHORS
                                      -------
  E. Apra, E. J. Bylaska, N. Govind, K. Kowalski, M. Valiev, D. Mejia-Rodriguez,
       A. Kunitsa, N. P. Bauman, A. Panyala, W. A. de Jong, T. P. Straatsma,
   H. J. J. van Dam, D. Wang, T. L. Windus, J. Hammond, J. Autschbach, A. Woods,
    K. Bhaskaran-Nair, J. Brabec, K. Lopata, S. A. Fischer, S. Krishnamoorthy,
     M. Jacquelin, W. Ma, M. Klemm, O. Villa, Y. Chen, V. Anisimov, F. Aquino,
     S. Hirata, M. T. Hackler, E. Hermes, L. Jensen, J. E. Moore, J. C. Becca,
      V. Konjkov, T. Risthaus, M. Malagoli, A. Marenich, A. Otero-de-la-Roza,
        J. Mullin, P. Nichols, R. Peverati, J. Pittner, Y. Zhao, P.-D. Fan,
        A. Fonari, M. J. Williamson, R. J. Harrison, J. R. Rehr, M. Dupuis,
     D. Silverstein, D. M. A. Smith, J. Nieplocha, V. Tipparaju, M. Krishnan,
     B. E. Van Kuiken, A. Vazquez-Mayagoitia, M. Swart, Q. Wu, T. Van Voorhis,
     A. A. Auer, M. Nooijen, L. D. Crosby, E. Brown, G. Cisneros, G. I. Fann,
   H. Fruchtl, J. Garza, K. Hirao, R. A. Kendall, J. A. Nichols, K. Tsemekhman,
    K. Wolinski, J. Anchell, D. E. Bernholdt, P. Borowski, T. Clark, D. Clerc,
   H. Dachsel, M. J. O. Deegan, K. Dyall, D. Elwood, E. Glendening, M. Gutowski,
   A. C. Hess, J. Jaffe, B. G. Johnson, J. Ju, R. Kobayashi, R. Kutteh, Z. Lin,
   R. Littlefield, X. Long, B. Meng, T. Nakajima, S. Niu, L. Pollack, M. Rosing,
   K. Glaesemann, G. Sandrone, M. Stave, H. Taylor, G. Thomas, J. H. van Lenthe,
                               A. T. Wong, Z. Zhang.

 Total times  cpu:     7069.8s     wall:     8339.9s
