 argument  1 = /home/aditisingh4812/nw_chem/nwchem-run/nwchem-run/tddft/closed/lcwpbe/geom-MOL/aniline.nw
                                         
                                         


             Northwest Computational Chemistry Package (NWChem) 7.2.3
             --------------------------------------------------------


                    Environmental Molecular Sciences Laboratory
                       Pacific Northwest National Laboratory
                                Richland, WA 99352

                              Copyright (c) 1994-2022
                       Pacific Northwest National Laboratory
                            Battelle Memorial Institute

             NWChem is an open-source computational chemistry package
                        distributed under the terms of the
                      Educational Community License (ECL) 2.0
             A copy of the license is included with this distribution
                              in the LICENSE.TXT file

                                  ACKNOWLEDGMENT
                                  --------------

            This software and its documentation were developed at the
            EMSL at Pacific Northwest National Laboratory, a multiprogram
            national laboratory, operated for the U.S. Department of Energy
            by Battelle under Contract Number DE-AC05-76RL01830. Support
            for this work was provided by the Department of Energy Office
            of Biological and Environmental Research, Office of Basic
            Energy Sciences, and the Office of Advanced Scientific Computing.


           Job information
           ---------------

    hostname        = p20
    program         = /home/aditisingh4812/nw_chem/nwchem-7.2.3-release.revision-d690e065-srconly.2024-08-27/nwchem-7.2.3/bin/LINUX64/nwchem
    date            = Mon Apr  7 21:38:07 2025

    compiled        = Mon_Apr_07_18:51:54_2025
    source          = /home/aditisingh4812/nw_chem/nwchem-7.2.3-release.revision-d690e065-srconly.2024-08-27/nwchem-7.2.3
    nwchem branch   = 7.2.3
    nwchem revision = d690e065
    ga revision     = 5.8.0
    use scalapack   = F
    input           = /home/aditisingh4812/nw_chem/nwchem-run/nwchem-run/tddft/closed/lcwpbe/geom-MOL/aniline.nw
    prefix          = aniline.
    data base       = ./aniline.db
    status          = startup
    nproc           =       48
    time left       =     -1s



           Memory information
           ------------------

    heap     = ********** doubles = 100000.0 Mbytes
    stack    = ********** doubles = 100000.0 Mbytes
    global   = ********** doubles = 100000.0 Mbytes (distinct from heap & stack)
    total    = ********** doubles = 300000.0 Mbytes
    verify   = yes
    hardfail = no 


           Directory information
           ---------------------

  0 permanent = .
  0 scratch   = .




                                NWChem Input Module
                                -------------------



 Scaling coordinates for geometry "geometry" by  1.889725989
 (inverse scale =  0.529177249)



                             Geometry "geometry" -> ""
                             -------------------------

 Output coordinates in angstroms (scale by  1.889725989 to convert to a.u.)

  No.       Tag          Charge          X              Y              Z
 ---- ---------------- ---------- -------------- -------------- --------------
    1 C                    6.0000     0.00000000     0.00000000     0.93672606
    2 C                    6.0000     1.20290500     0.00000000     0.22135106
    3 C                    6.0000    -1.20290500     0.00000000     0.22135106
    4 C                    6.0000     0.00000000     0.00000000    -1.87665094
    5 C                    6.0000     1.19767400     0.00000000    -1.16705194
    6 C                    6.0000    -1.19767400     0.00000000    -1.16705194
    7 N                    7.0000     0.00000000     0.00000000     2.31040306
    8 H                    1.0000     2.13778300     0.00000000    -1.69567094
    9 H                    1.0000    -2.13778300     0.00000000    -1.69567094
   10 H                    1.0000     0.00000000     0.00000000    -2.95344994
   11 H                    1.0000     2.13893700     0.00000000     0.75878206
   12 H                    1.0000    -2.13893700     0.00000000     0.75878206
   13 H                    1.0000    -0.85799500     0.00000000     2.82118306
   14 H                    1.0000     0.85799500     0.00000000     2.82118306

      Atomic Mass 
      ----------- 

      C                 12.000000
      N                 14.003070
      H                  1.007825


 Effective nuclear repulsion energy (a.u.)     272.4333826070

            Nuclear Dipole moment (a.u.) 
            ----------------------------
        X                 Y               Z
 ---------------- ---------------- ----------------
     0.0000000000     0.0000000000    -0.0000000000


            XYZ format geometry
            -------------------
    14
 geometry
 C                     0.00000000     0.00000000     0.93672606
 C                     1.20290500     0.00000000     0.22135106
 C                    -1.20290500     0.00000000     0.22135106
 C                     0.00000000     0.00000000    -1.87665094
 C                     1.19767400     0.00000000    -1.16705194
 C                    -1.19767400     0.00000000    -1.16705194
 N                     0.00000000     0.00000000     2.31040306
 H                     2.13778300     0.00000000    -1.69567094
 H                    -2.13778300     0.00000000    -1.69567094
 H                     0.00000000     0.00000000    -2.95344994
 H                     2.13893700     0.00000000     0.75878206
 H                    -2.13893700     0.00000000     0.75878206
 H                    -0.85799500     0.00000000     2.82118306
 H                     0.85799500     0.00000000     2.82118306

 ==============================================================================
                                internuclear distances
 ------------------------------------------------------------------------------
       center one      |      center two      | atomic units |  angstroms
 ------------------------------------------------------------------------------
    2 C                |   1 C                |     2.64477  |     1.39955
    3 C                |   1 C                |     2.64477  |     1.39955
    5 C                |   2 C                |     2.62372  |     1.38841
    5 C                |   4 C                |     2.63070  |     1.39210
    6 C                |   3 C                |     2.62372  |     1.38841
    6 C                |   4 C                |     2.63070  |     1.39210
    7 N                |   1 C                |     2.59587  |     1.37368
    8 H                |   5 C                |     2.03814  |     1.07854
    9 H                |   6 C                |     2.03814  |     1.07854
   10 H                |   4 C                |     2.03486  |     1.07680
   11 H                |   2 C                |     2.03967  |     1.07935
   12 H                |   3 C                |     2.03967  |     1.07935
   13 H                |   7 N                |     1.88694  |     0.99852
   14 H                |   7 N                |     1.88694  |     0.99852
 ------------------------------------------------------------------------------
                         number of included internuclear distances:         14
 ==============================================================================



 ==============================================================================
                                 internuclear angles
 ------------------------------------------------------------------------------
        center 1       |       center 2       |       center 3       |  degrees
 ------------------------------------------------------------------------------
    2 C                |   1 C                |   3 C                |   118.52
    2 C                |   1 C                |   7 N                |   120.74
    3 C                |   1 C                |   7 N                |   120.74
    1 C                |   2 C                |   5 C                |   120.52
    1 C                |   2 C                |  11 H                |   119.40
    5 C                |   2 C                |  11 H                |   120.08
    1 C                |   3 C                |   6 C                |   120.52
    1 C                |   3 C                |  12 H                |   119.40
    6 C                |   3 C                |  12 H                |   120.08
    5 C                |   4 C                |   6 C                |   118.71
    5 C                |   4 C                |  10 H                |   120.65
    6 C                |   4 C                |  10 H                |   120.65
    2 C                |   5 C                |   4 C                |   120.86
    2 C                |   5 C                |   8 H                |   119.13
    4 C                |   5 C                |   8 H                |   120.01
    3 C                |   6 C                |   4 C                |   120.86
    3 C                |   6 C                |   9 H                |   119.13
    4 C                |   6 C                |   9 H                |   120.01
    1 C                |   7 N                |  13 H                |   120.77
    1 C                |   7 N                |  14 H                |   120.77
   13 H                |   7 N                |  14 H                |   118.47
 ------------------------------------------------------------------------------
                            number of included internuclear angles:         21
 ==============================================================================





 Summary of "ao basis" -> "" (cartesian)
 ------------------------------------------------------------------------------
       Tag                 Description            Shells   Functions and Types
 ---------------- ------------------------------  ------  ---------------------
 *                         def2-TZVPD                 on all atoms 


  pbe96 is a nonlocal functional; adding pw91lda local functional. 

                                 NWChem DFT Module
                                 -----------------


                      Basis "ao basis" -> "ao basis" (cartesian)
                      -----
  C (Carbon)
  ----------
            Exponent  Coefficients 
       -------------- ---------------------------------------------------------
  1 S  1.35753497E+04  0.000222
  1 S  2.03523337E+03  0.001723
  1 S  4.63225624E+02  0.008926
  1 S  1.31200196E+02  0.035728
  1 S  4.28530159E+01  0.110763
  1 S  1.55841858E+01  0.242956

  2 S  6.20671385E+00  0.414403
  2 S  2.57648965E+00  0.237450

  3 S  5.76963394E-01  1.000000

  4 S  2.29728314E-01  1.000000

  5 S  9.51644400E-02  1.000000

  6 S  4.84754014E-02  1.000000

  7 P  3.46972322E+01  0.005333
  7 P  7.95826228E+00  0.035864
  7 P  2.37808269E+00  0.142159
  7 P  8.14332082E-01  0.342705

  8 P  2.88875473E-01  1.000000

  9 P  1.00568237E-01  1.000000

 10 D  1.09700000E+00  1.000000

 11 D  3.18000000E-01  1.000000

 12 D  9.09853364E-02  1.000000

 13 F  7.61000000E-01  1.000000

  N (Nitrogen)
  ------------
            Exponent  Coefficients 
       -------------- ---------------------------------------------------------
  1 S  1.97308006E+04  0.000219
  1 S  2.95789587E+03  0.001696
  1 S  6.73221336E+02  0.008795
  1 S  1.90682495E+02  0.035359
  1 S  6.22954419E+01  0.110958
  1 S  2.26541612E+01  0.249830

  2 S  8.97914774E+00  0.406239
  2 S  3.68630024E+00  0.243382

  3 S  8.46600768E-01  1.000000

  4 S  3.36471338E-01  1.000000

  5 S  1.36476537E-01  1.000000

  6 S  6.84416058E-02  1.000000

  7 P  4.92003805E+01  0.005555
  7 P  1.13467905E+01  0.038052
  7 P  3.42739724E+00  0.149537
  7 P  1.17855251E+00  0.349493

  8 P  4.16422050E-01  1.000000

  9 P  1.42608260E-01  1.000000

 10 D  1.65400000E+00  1.000000

 11 D  4.69000000E-01  1.000000

 12 D  1.28296421E-01  1.000000

 13 F  1.09300000E+00  1.000000

  H (Hydrogen)
  ------------
            Exponent  Coefficients 
       -------------- ---------------------------------------------------------
  1 S  3.40613410E+01  0.006025
  1 S  5.12357460E+00  0.045021
  1 S  1.16466260E+00  0.201897

  2 S  3.27230410E-01  1.000000

  3 S  1.03072410E-01  1.000000

  4 P  8.00000000E-01  1.000000

  5 P  9.57741296E-02  1.000000



 Summary of "ao basis" -> "ao basis" (cartesian)
 ------------------------------------------------------------------------------
       Tag                 Description            Shells   Functions and Types
 ---------------- ------------------------------  ------  ---------------------
 C                         def2-TZVPD               13       43   6s3p3d1f
 N                         def2-TZVPD               13       43   6s3p3d1f
 H                         def2-TZVPD                5        9   3s2p




 Summary of "ao basis" -> "ao basis" (cartesian)
 ------------------------------------------------------------------------------
       Tag                 Description            Shells   Functions and Types
 ---------------- ------------------------------  ------  ---------------------
 C                         def2-TZVPD               13       43   6s3p3d1f
 N                         def2-TZVPD               13       43   6s3p3d1f
 H                         def2-TZVPD                5        9   3s2p


  int_init: cando_txs set to always be  F
  Caching 1-el integrals 

            General Information
            -------------------
          SCF calculation type: DFT
          Wavefunction type:  closed shell.
          No. of atoms     :    14
          No. of electrons :    50
           Alpha electrons :    25
            Beta electrons :    25
          Charge           :     0
          Spin multiplicity:     1
          Use of symmetry is: off; symmetry adaption is: off
          Maximum number of iterations:  50
          AO basis - number of functions:   364
                     number of shells:   126
          Convergence on energy requested:  1.00D-06
          Convergence on density requested:  1.00D-05
          Convergence on gradient requested:  5.00D-04

              XC Information
              --------------
                     Hartree-Fock (Exact) Exchange  1.000          
                     LC-wPBE(h)Exchange Functional  1.000          
            Perdew 1991 LDA Correlation Functional  1.000 local    
           PerdewBurkeErnz. Correlation Functional  1.000 non-local

           Range-Separation Parameters        
           ---------------------------
           Alpha           :  0.00
           Beta            :  1.00
           Gamma           :  0.28
           Short-Range HF  :     F

             Grid Information
             ----------------
          Grid used for XC integration:  xfine     
          Radial quadrature: Mura-Knowles        
          Angular quadrature: Lebedev. 
          Tag              B.-S. Rad. Rad. Pts. Rad. Cut. Ang. Pts.
          ---              ---------- --------- --------- ---------
          C                   0.70      100          13.0      1454
          N                   0.65      100          14.0      1454
          H                   0.35      100          15.0      1202
          Grid pruning is: on 
          Number of quadrature shells:  1400
          Spatial weights used:  Erf1

          Convergence Information
          -----------------------
          Convergence aids based upon iterative change in 
          total energy or number of iterations. 
          Levelshifting, if invoked, occurs when the 
          HOMO/LUMO gap drops below (HL_TOL):  1.00D-02
          DIIS, if invoked, will attempt to extrapolate 
          using up to (NFOCK): 10 stored Fock matrices.

                    Damping( 0%)  Levelshifting(0.5)       DIIS
                  --------------- ------------------- ---------------
          dE  on:    start            ASAP                start   
          dE off:    2 iters         50 iters            50 iters 


      Screening Tolerance Information
      -------------------------------
          Density screening/tol_rho:  1.00D-10
          AO Gaussian exp screening on grid/accAOfunc:  14
          CD Gaussian exp screening on grid/accCDfunc:  20
          XC Gaussian exp screening on grid/accXCfunc:  20
          Schwarz screening/accCoul:  1.00D-08

  
  CAM type calculations without CDFIT are
  only available with the direct option.
  Forcing Direct SCF
  

 WARNING : Found    11 linear dependencies 
 S eigenvalue threshold:     1.00000E-05
 Smallest S eigenvalue :     3.66632E-08
 Largest  S eigenvalue :     7.50178E-06


 !! The overlap matrix has  11 vectors deemed linearly dependent with
    eigenvalues:
 3.67D-08 9.86D-07 1.31D-06 1.36D-06 1.81D-06 2.34D-06 2.96D-06 6.12D-06
 6.18D-06 6.63D-06 7.50D-06


      Superposition of Atomic Density Guess
      -------------------------------------

 Sum of atomic energies:        -283.83820516

      Non-variational initial energy
      ------------------------------

 Total energy =    -288.969541
 1-e energy   =    -919.923407
 2-e energy   =     358.520483
 HOMO         =      -0.238404
 LUMO         =      -0.017650

  WARNING: movecs_in_org=atomic not equal to movecs_in=./aniline.movecs
   Time after variat. SCF:      9.2
   Time prior to 1st pass:      9.2

 Grid_pts file          = ./aniline.gridpts.00
 Record size in doubles =  12289        No. of grid_pts per rec  =   3070
 Max. records in memory =     17        Max. recs in file   =  21109390

 Grid integrated density:      49.905811220133
 Requested integration accuracy:   0.10E-07

           Memory utilization after 1st SCF pass: 
           Heap Space remaining (MW):     7864.22          7864223658
          Stack Space remaining (MW):    13107.20         13107197836

   convergence    iter        energy       DeltaE   RMS-Dens  Diis-err    time
 ---------------- ----- ----------------- --------- --------- ---------  ------
 d= 0,ls=0.0,diis     1   -285.1600662164 -5.58D+02  1.60D+02  4.29D+03    30.4
 Grid integrated density:      50.000009405505
 Requested integration accuracy:   0.10E-07
 d= 0,ls=0.0,diis     2   -270.2005897649  1.50D+01  1.44D+02  1.58D+02    54.3
 Grid integrated density:      50.000017195646
 Requested integration accuracy:   0.10E-07
 d= 0,ls=0.0,diis     3   -280.7654919006 -1.06D+01  6.15D+01  5.15D+01    76.9
 Grid integrated density:      50.000004097960
 Requested integration accuracy:   0.10E-07
 d= 0,ls=0.0,diis     4   -280.3593103618  4.06D-01  4.70D+00  3.75D+01   100.1
 Grid integrated density:      50.000001772982
 Requested integration accuracy:   0.10E-07
 d= 0,ls=0.0,diis     5   -278.5516624403  1.81D+00  3.20D-01  5.53D+01   123.6
 Grid integrated density:      50.000001482765
 Requested integration accuracy:   0.10E-07
 d= 0,ls=0.0,diis     6   -287.1921203993 -8.64D+00  4.28D-02  2.01D+00   146.3
 Grid integrated density:      50.000001071612
 Requested integration accuracy:   0.10E-07
 d= 0,ls=0.0,diis     7   -287.3946275330 -2.03D-01  5.05D-03  3.39D-01   168.5
 Grid integrated density:      50.000001032720
 Requested integration accuracy:   0.10E-07
  Resetting Diis
 d= 0,ls=0.0,diis     8   -287.4385909727 -4.40D-02  2.34D-03  3.28D-02   190.3
 d= 0,ls=0.0,diis     9   -287.4432782009 -4.69D-03  2.38D-03  4.73D-03   212.2
 d= 0,ls=0.0,diis    10   -287.4434506870 -1.72D-04  1.45D-04  4.40D-03   233.9
 d= 0,ls=0.0,diis    11   -287.4439952604 -5.45D-04  1.18D-04  8.17D-05   256.7
 d= 0,ls=0.0,diis    12   -287.4440165619 -2.13D-05  2.97D-05  2.05D-05   279.0
 d= 0,ls=0.0,diis    13   -287.4440217463 -5.18D-06  1.10D-05  1.87D-06   300.6
 d= 0,ls=0.0,diis    14   -287.4440225784 -8.32D-07  4.39D-06  3.19D-07   323.7


         Total DFT energy =     -287.444022578355
      One electron energy =     -926.825440364123
           Coulomb energy =      408.814934687904
    Exchange-Corr. energy =      -41.866899509108
 Nuclear repulsion energy =      272.433382606973

 Numeric. integr. density =       50.000000097147

     Total iterative time =    314.5s



                       DFT Final Molecular Orbital Analysis
                       ------------------------------------

 Vector    1  Occ=2.000000D+00  E=-1.414961D+01
              MO Center=  2.1D-09,  4.6D-11,  2.3D+00, r^2= 2.0D-02
   Bfn.  Coefficient  Atom+Function         Bfn.  Coefficient  Atom+Function  
  ----- ------------  ---------------      ----- ------------  ---------------
   260      0.618996   7 N  s               259      0.449488   7 N  s         
   262     -0.110097   7 N  s               261      0.100744   7 N  s         

 Vector    2  Occ=2.000000D+00  E=-1.008612D+01
              MO Center=  5.8D-08, -2.8D-14,  9.4D-01, r^2= 2.8D-02
   Bfn.  Coefficient  Atom+Function         Bfn.  Coefficient  Atom+Function  
  ----- ------------  ---------------      ----- ------------  ---------------
     2      0.599532   1 C  s                 1      0.468116   1 C  s         
     3      0.102054   1 C  s                 4     -0.099821   1 C  s         

 Vector    3  Occ=2.000000D+00  E=-1.004033D+01
              MO Center=  1.2D+00, -3.5D-13, -1.2D+00, r^2= 1.4D-01
   Bfn.  Coefficient  Atom+Function         Bfn.  Coefficient  Atom+Function  
  ----- ------------  ---------------      ----- ------------  ---------------
   174      0.593216   5 C  s               173      0.463208   5 C  s         
   175      0.101846   5 C  s               176     -0.101071   5 C  s         
   217      0.082650   6 C  s               216      0.064541   6 C  s         

 Vector    4  Occ=2.000000D+00  E=-1.004031D+01
              MO Center= -1.2D+00,  6.5D-14, -1.2D+00, r^2= 1.4D-01
   Bfn.  Coefficient  Atom+Function         Bfn.  Coefficient  Atom+Function  
  ----- ------------  ---------------      ----- ------------  ---------------
   217      0.593235   6 C  s               216      0.463222   6 C  s         
   218      0.101853   6 C  s               219     -0.101088   6 C  s         
   174     -0.082782   5 C  s               173     -0.064634   5 C  s         

 Vector    5  Occ=2.000000D+00  E=-1.003438D+01
              MO Center=  1.2D+00,  1.0D-12,  2.2D-01, r^2= 3.1D-02
   Bfn.  Coefficient  Atom+Function         Bfn.  Coefficient  Atom+Function  
  ----- ------------  ---------------      ----- ------------  ---------------
    45      0.598983   2 C  s                44      0.467749   2 C  s         
    46      0.102908   2 C  s                47     -0.101757   2 C  s         

 Vector    6  Occ=2.000000D+00  E=-1.003435D+01
              MO Center= -1.2D+00, -6.3D-13,  2.2D-01, r^2= 3.1D-02
   Bfn.  Coefficient  Atom+Function         Bfn.  Coefficient  Atom+Function  
  ----- ------------  ---------------      ----- ------------  ---------------
    88      0.598984   3 C  s                87      0.467750   3 C  s         
    89      0.102906   3 C  s                90     -0.101751   3 C  s         

 Vector    7  Occ=2.000000D+00  E=-1.002812D+01
              MO Center= -8.8D-07, -5.6D-13, -1.9D+00, r^2= 2.9D-02
   Bfn.  Coefficient  Atom+Function         Bfn.  Coefficient  Atom+Function  
  ----- ------------  ---------------      ----- ------------  ---------------
   131      0.599247   4 C  s               130      0.467945   4 C  s         
   132      0.102971   4 C  s               133     -0.102175   4 C  s         

 Vector    8  Occ=2.000000D+00  E=-1.005347D+00
              MO Center=  2.3D-05, -4.7D-10,  1.8D+00, r^2= 1.3D+00
   Bfn.  Coefficient  Atom+Function         Bfn.  Coefficient  Atom+Function  
  ----- ------------  ---------------      ----- ------------  ---------------
   262      0.338091   7 N  s               261      0.248779   7 N  s         
     3      0.186727   1 C  s               260     -0.179358   7 N  s         
     4      0.158558   1 C  s                 2     -0.115669   1 C  s         
   259     -0.082256   7 N  s                46      0.068515   2 C  s         
    89      0.068508   3 C  s                 9      0.065123   1 C  pz        

 Vector    9  Occ=2.000000D+00  E=-9.212290D-01
              MO Center=  1.1D-04,  1.1D-10, -3.4D-01, r^2= 3.0D+00
   Bfn.  Coefficient  Atom+Function         Bfn.  Coefficient  Atom+Function  
  ----- ------------  ---------------      ----- ------------  ---------------
   262     -0.168559   7 N  s               132      0.157467   4 C  s         
   175      0.153707   5 C  s               218      0.153686   6 C  s         
   176      0.129724   5 C  s               219      0.129692   6 C  s         
    46      0.125017   2 C  s                89      0.124993   3 C  s         
   133      0.121308   4 C  s               261     -0.115839   7 N  s         

 Vector   10  Occ=2.000000D+00  E=-8.292192D-01
              MO Center= -9.3D-05, -8.0D-10, -3.8D-01, r^2= 3.0D+00
   Bfn.  Coefficient  Atom+Function         Bfn.  Coefficient  Atom+Function  
  ----- ------------  ---------------      ----- ------------  ---------------
    46      0.186077   2 C  s                89     -0.186075   3 C  s         
    47      0.175811   2 C  s                90     -0.175807   3 C  s         
   175      0.174589   5 C  s               218     -0.174621   6 C  s         
   176      0.157097   5 C  s               219     -0.157129   6 C  s         
    45     -0.113718   2 C  s                88      0.113717   3 C  s         

 Vector   11  Occ=2.000000D+00  E=-8.113955D-01
              MO Center=  9.2D-05, -2.8D-10, -1.4D-01, r^2= 3.9D+00
   Bfn.  Coefficient  Atom+Function         Bfn.  Coefficient  Atom+Function  
  ----- ------------  ---------------      ----- ------------  ---------------
     4      0.201750   1 C  s               132     -0.198955   4 C  s         
   133     -0.190177   4 C  s                 3      0.169332   1 C  s         
   262     -0.152437   7 N  s               131      0.123288   4 C  s         
    46      0.113847   2 C  s                89      0.113859   3 C  s         
     2     -0.106435   1 C  s                47      0.105802   2 C  s         

 Vector   12  Occ=2.000000D+00  E=-7.017942D-01
              MO Center= -4.1D-05, -4.4D-11, -6.3D-03, r^2= 4.1D+00
   Bfn.  Coefficient  Atom+Function         Bfn.  Coefficient  Atom+Function  
  ----- ------------  ---------------      ----- ------------  ---------------
   176     -0.177284   5 C  s               219      0.177278   6 C  s         
     7      0.173058   1 C  px              175     -0.153237   5 C  s         
   218      0.153252   6 C  s                47      0.150090   2 C  s         
    90     -0.150073   3 C  s               136     -0.129897   4 C  px        
   265      0.125886   7 N  px               46      0.121606   2 C  s         

 Vector   13  Occ=2.000000D+00  E=-6.886205D-01
              MO Center=  5.2D-05,  2.0D-10,  6.0D-02, r^2= 4.6D+00
   Bfn.  Coefficient  Atom+Function         Bfn.  Coefficient  Atom+Function  
  ----- ------------  ---------------      ----- ------------  ---------------
     4      0.243407   1 C  s               133      0.182726   4 C  s         
   267     -0.175630   7 N  pz              132      0.163840   4 C  s         
     3      0.159667   1 C  s                47     -0.106865   2 C  s         
    90     -0.106878   3 C  s               181     -0.096991   5 C  pz        
   224     -0.096986   6 C  pz                2     -0.096360   1 C  s         

 Vector   14  Occ=2.000000D+00  E=-6.203590D-01
              MO Center=  8.8D-05, -1.3D-11,  8.9D-02, r^2= 4.6D+00
   Bfn.  Coefficient  Atom+Function         Bfn.  Coefficient  Atom+Function  
  ----- ------------  ---------------      ----- ------------  ---------------
     9      0.187028   1 C  pz              267     -0.187799   7 N  pz        
    50      0.130398   2 C  px               93     -0.130381   3 C  px        
   179      0.127696   5 C  px              222     -0.127685   6 C  px        
    12      0.120304   1 C  pz              134      0.115423   4 C  s         
   270     -0.106793   7 N  pz              273     -0.105089   7 N  pz        

 Vector   15  Occ=2.000000D+00  E=-6.078845D-01
              MO Center=  1.7D-05,  4.1D-11,  1.4D+00, r^2= 4.3D+00
   Bfn.  Coefficient  Atom+Function         Bfn.  Coefficient  Atom+Function  
  ----- ------------  ---------------      ----- ------------  ---------------
   265      0.298615   7 N  px              268      0.193979   7 N  px        
   348     -0.176583  13 H  s               357      0.176585  14 H  s         
   347     -0.126525  13 H  s               356      0.126529  14 H  s         
   136      0.113667   4 C  px              181     -0.106313   5 C  pz        
   224      0.106319   6 C  pz              271      0.102004   7 N  px        

 Vector   16  Occ=2.000000D+00  E=-5.659790D-01
              MO Center=  2.1D-05,  6.4D-11, -3.2D-01, r^2= 5.3D+00
   Bfn.  Coefficient  Atom+Function         Bfn.  Coefficient  Atom+Function  
  ----- ------------  ---------------      ----- ------------  ---------------
   267     -0.175267   7 N  pz              138      0.170012   4 C  pz        
   321     -0.150044  10 H  s               176      0.143462   5 C  s         
   219      0.143476   6 C  s                 9      0.129388   1 C  pz        
   133     -0.124931   4 C  s               320     -0.113273  10 H  s         
    52     -0.108835   2 C  pz               95     -0.108810   3 C  pz        

 Vector   17  Occ=2.000000D+00  E=-5.160941D-01
              MO Center=  1.2D-04,  4.0D-11, -5.4D-01, r^2= 4.3D+00
   Bfn.  Coefficient  Atom+Function         Bfn.  Coefficient  Atom+Function  
  ----- ------------  ---------------      ----- ------------  ---------------
     9      0.168164   1 C  pz              179     -0.155418   5 C  px        
   222      0.155580   6 C  px              138      0.152492   4 C  pz        
    50      0.137940   2 C  px               93     -0.137736   3 C  px        
   303     -0.127339   8 H  s               312     -0.127373   9 H  s         
    12      0.117086   1 C  pz              267     -0.114743   7 N  pz        

 Vector   18  Occ=2.000000D+00  E=-5.142524D-01
              MO Center= -1.7D-06,  3.9D-11,  4.6D-03, r^2= 3.7D+00
   Bfn.  Coefficient  Atom+Function         Bfn.  Coefficient  Atom+Function  
  ----- ------------  ---------------      ----- ------------  ---------------
     7      0.207524   1 C  px              136      0.200878   4 C  px        
    52      0.152986   2 C  pz               95     -0.152993   3 C  pz        
   181     -0.144944   5 C  pz              224      0.145018   6 C  pz        
   265     -0.140872   7 N  px               10      0.134289   1 C  px        
   179     -0.124176   5 C  px              222     -0.123961   6 C  px        

 Vector   19  Occ=2.000000D+00  E=-5.002923D-01
              MO Center= -5.8D-05, -1.1D-11, -3.5D-01, r^2= 4.0D+00
   Bfn.  Coefficient  Atom+Function         Bfn.  Coefficient  Atom+Function  
  ----- ------------  ---------------      ----- ------------  ---------------
    52     -0.149398   2 C  pz               95      0.149389   3 C  pz        
   181      0.148035   5 C  pz              224     -0.148014   6 C  pz        
    50     -0.145534   2 C  px               93     -0.145566   3 C  px        
    30      0.138115   1 C  dxz             330     -0.133992  11 H  s         
   339      0.134014  12 H  s               179     -0.129265   5 C  px        

 Vector   20  Occ=2.000000D+00  E=-4.867760D-01
              MO Center=  6.0D-05, -6.0D-10,  4.6D-01, r^2= 3.0D+00
   Bfn.  Coefficient  Atom+Function         Bfn.  Coefficient  Atom+Function  
  ----- ------------  ---------------      ----- ------------  ---------------
     8      0.224874   1 C  py               11      0.181155   1 C  py        
   266      0.178072   7 N  py              269      0.158813   7 N  py        
    51      0.149104   2 C  py               94      0.149087   3 C  py        
    54      0.128900   2 C  py               97      0.128889   3 C  py        
   180      0.113952   5 C  py              223      0.113936   6 C  py        

 Vector   21  Occ=2.000000D+00  E=-4.369067D-01
              MO Center= -1.3D-04,  7.1D-11, -1.1D+00, r^2= 3.7D+00
   Bfn.  Coefficient  Atom+Function         Bfn.  Coefficient  Atom+Function  
  ----- ------------  ---------------      ----- ------------  ---------------
   138      0.221515   4 C  pz              181     -0.195268   5 C  pz        
   224     -0.195297   6 C  pz               52      0.185522   2 C  pz        
    95      0.185552   3 C  pz              321     -0.184534  10 H  s         
   144      0.159041   4 C  pz              187     -0.152224   5 C  pz        
   230     -0.152235   6 C  pz              141      0.132612   4 C  pz        

 Vector   22  Occ=2.000000D+00  E=-4.189551D-01
              MO Center= -1.8D-04,  9.3D-11, -4.9D-01, r^2= 4.2D+00
   Bfn.  Coefficient  Atom+Function         Bfn.  Coefficient  Atom+Function  
  ----- ------------  ---------------      ----- ------------  ---------------
     7      0.204512   1 C  px              136     -0.205196   4 C  px        
   179      0.184445   5 C  px              222      0.184469   6 C  px        
    50     -0.164481   2 C  px               93     -0.164503   3 C  px        
    13      0.158664   1 C  px              185      0.138110   5 C  px        
   228      0.138130   6 C  px              303      0.131928   8 H  s         

 Vector   23  Occ=2.000000D+00  E=-4.064771D-01
              MO Center=  1.9D-05,  3.0D-10,  2.2D-01, r^2= 4.7D+00
   Bfn.  Coefficient  Atom+Function         Bfn.  Coefficient  Atom+Function  
  ----- ------------  ---------------      ----- ------------  ---------------
   266      0.271638   7 N  py              269      0.248056   7 N  py        
   137     -0.198250   4 C  py              140     -0.173687   4 C  py        
   272      0.163874   7 N  py              180     -0.154776   5 C  py        
   223     -0.154778   6 C  py              183     -0.134588   5 C  py        
   226     -0.134592   6 C  py                8      0.117404   1 C  py        

 Vector   24  Occ=2.000000D+00  E=-3.364695D-01
              MO Center=  1.1D-04,  1.4D-09, -4.5D-01, r^2= 3.0D+00
   Bfn.  Coefficient  Atom+Function         Bfn.  Coefficient  Atom+Function  
  ----- ------------  ---------------      ----- ------------  ---------------
    51      0.216969   2 C  py               94     -0.216933   3 C  py        
   180      0.212388   5 C  py              223     -0.212377   6 C  py        
    54      0.190571   2 C  py               97     -0.190535   3 C  py        
   183      0.184997   5 C  py              226     -0.184982   6 C  py        
    57      0.124540   2 C  py              100     -0.124510   3 C  py        

 Vector   25  Occ=2.000000D+00  E=-2.830748D-01
              MO Center= -2.5D-04,  1.2D-09,  4.3D-01, r^2= 4.2D+00
   Bfn.  Coefficient  Atom+Function         Bfn.  Coefficient  Atom+Function  
  ----- ------------  ---------------      ----- ------------  ---------------
   266      0.270185   7 N  py              269      0.253672   7 N  py        
   137      0.211605   4 C  py              140      0.188347   4 C  py        
   272      0.185001   7 N  py               51     -0.163142   2 C  py        
    94     -0.163245   3 C  py                8     -0.154085   1 C  py        
    54     -0.145718   2 C  py               97     -0.145819   3 C  py        

 Vector   26  Occ=0.000000D+00  E= 5.898868D-02
              MO Center=  6.9D-04, -8.4D-10,  1.5D+00, r^2= 1.5D+01
   Bfn.  Coefficient  Atom+Function         Bfn.  Coefficient  Atom+Function  
  ----- ------------  ---------------      ----- ------------  ---------------
   264      4.280363   7 N  s                49      3.416243   2 C  s         
    92      3.414761   3 C  s               349     -3.059743  13 H  s         
   358     -3.060249  14 H  s               134      2.407641   4 C  s         
   322     -1.868103  10 H  s                15      1.772002   1 C  pz        
   331     -1.774668  11 H  s               340     -1.774927  12 H  s         

 Vector   27  Occ=0.000000D+00  E= 6.330671D-02
              MO Center=  3.2D-04, -2.2D-10, -4.5D-01, r^2= 4.3D+00
   Bfn.  Coefficient  Atom+Function         Bfn.  Coefficient  Atom+Function  
  ----- ------------  ---------------      ----- ------------  ---------------
    29      0.327826   1 C  dxy             183     -0.225033   5 C  py        
   226      0.224980   6 C  py               54      0.222715   2 C  py        
    97     -0.222666   3 C  py              180     -0.220812   5 C  py        
   223      0.220756   6 C  py               51      0.209742   2 C  py        
    94     -0.209688   3 C  py              158     -0.183441   4 C  dxy       

 Vector   28  Occ=0.000000D+00  E= 7.372699D-02
              MO Center=  8.3D-04,  6.0D-11, -7.9D-01, r^2= 1.9D+01
   Bfn.  Coefficient  Atom+Function         Bfn.  Coefficient  Atom+Function  
  ----- ------------  ---------------      ----- ------------  ---------------
     6      3.741774   1 C  s               178     -3.220371   5 C  s         
   221     -3.217446   6 C  s               135     -2.527908   4 C  s         
   349     -2.431250  13 H  s               358     -2.430725  14 H  s         
    15      2.050212   1 C  pz              264      1.475728   7 N  s         
   273      1.476526   7 N  pz              205      1.128895   5 C  dzz       

 Vector   29  Occ=0.000000D+00  E= 7.721864D-02
              MO Center= -9.3D-04, -8.0D-09,  2.9D-01, r^2= 1.8D+01
   Bfn.  Coefficient  Atom+Function         Bfn.  Coefficient  Atom+Function  
  ----- ------------  ---------------      ----- ------------  ---------------
    49      5.041081   2 C  s                92     -5.040993   3 C  s         
   178      2.460366   5 C  s               221     -2.462091   6 C  s         
    71     -1.863808   2 C  dxx             114      1.863959   3 C  dxx       
   349      1.531217  13 H  s               358     -1.531469  14 H  s         
   331      1.148266  11 H  s               340     -1.148193  12 H  s         

 Vector   30  Occ=0.000000D+00  E= 7.986525D-02
              MO Center= -1.9D-04, -8.0D-09, -2.7D-01, r^2= 4.9D+00
   Bfn.  Coefficient  Atom+Function         Bfn.  Coefficient  Atom+Function  
  ----- ------------  ---------------      ----- ------------  ---------------
     8      0.289506   1 C  py               11      0.276364   1 C  py        
    14      0.270234   1 C  py              140      0.258508   4 C  py        
   201     -0.238225   5 C  dxy             244      0.238226   6 C  dxy       
   137      0.233810   4 C  py              336     -0.154056  11 H  py        
   345     -0.154064  12 H  py              161     -0.143244   4 C  dyz       

 Vector   31  Occ=0.000000D+00  E= 9.828608D-02
              MO Center= -1.9D-05,  7.7D-09, -9.4D-01, r^2= 2.0D+01
   Bfn.  Coefficient  Atom+Function         Bfn.  Coefficient  Atom+Function  
  ----- ------------  ---------------      ----- ------------  ---------------
   135      9.863103   4 C  s                 6      7.950518   1 C  s         
    49     -6.479098   2 C  s                92     -6.475165   3 C  s         
   162     -3.043196   4 C  dzz             178     -2.715549   5 C  s         
   221     -2.721827   6 C  s               349     -2.700370  13 H  s         
   358     -2.699591  14 H  s               322      2.059930  10 H  s         

 Vector   32  Occ=0.000000D+00  E= 1.003063D-01
              MO Center= -2.3D-04,  3.2D-09, -7.2D-01, r^2= 2.1D+01
   Bfn.  Coefficient  Atom+Function         Bfn.  Coefficient  Atom+Function  
  ----- ------------  ---------------      ----- ------------  ---------------
   178      9.462658   5 C  s               221     -9.460233   6 C  s         
    49     -7.474418   2 C  s                92      7.477354   3 C  s         
   349     -2.458458  13 H  s               358      2.459331  14 H  s         
   200     -1.858562   5 C  dxx             243      1.858587   6 C  dxx       
   202      1.830016   5 C  dxz             245      1.829421   6 C  dxz       

 Vector   33  Occ=0.000000D+00  E= 1.177665D-01
              MO Center=  7.5D-05,  6.1D-09,  2.8D-01, r^2= 1.4D+01
   Bfn.  Coefficient  Atom+Function         Bfn.  Coefficient  Atom+Function  
  ----- ------------  ---------------      ----- ------------  ---------------
     6     15.555450   1 C  s               264     -7.934384   7 N  s         
   134     -5.943515   4 C  s               322      5.561576  10 H  s         
   331      5.312368  11 H  s               340      5.311277  12 H  s         
   304      5.091140   8 H  s               313      5.090341   9 H  s         
   177     -4.742390   5 C  s               220     -4.741837   6 C  s         

 Vector   34  Occ=0.000000D+00  E= 1.347643D-01
              MO Center= -1.0D-04,  4.4D-09, -2.3D-01, r^2= 2.2D+01
   Bfn.  Coefficient  Atom+Function         Bfn.  Coefficient  Atom+Function  
  ----- ------------  ---------------      ----- ------------  ---------------
   135     13.949180   4 C  s               178    -13.706996   5 C  s         
   221    -13.708107   6 C  s                49      9.991668   2 C  s         
    92      9.992663   3 C  s               331     -6.069340  11 H  s         
   340     -6.068571  12 H  s                 6     -5.607869   1 C  s         
   322     -4.574027  10 H  s               264     -4.004899   7 N  s         

 Vector   35  Occ=0.000000D+00  E= 1.545664D-01
              MO Center= -1.5D-07, -1.9D-09,  1.5D+00, r^2= 1.6D+01
   Bfn.  Coefficient  Atom+Function         Bfn.  Coefficient  Atom+Function  
  ----- ------------  ---------------      ----- ------------  ---------------
    30      8.146254   1 C  dxz              49     -7.112925   2 C  s         
    92      7.112528   3 C  s               349      6.465269  13 H  s         
   358     -6.464915  14 H  s                13      4.840656   1 C  px        
   178      3.862729   5 C  s               221     -3.862607   6 C  s         
   331     -2.216446  11 H  s               340      2.216581  12 H  s         

 Vector   36  Occ=0.000000D+00  E= 1.725468D-01
              MO Center=  9.5D-05, -3.1D-08, -4.6D-01, r^2= 1.7D+01
   Bfn.  Coefficient  Atom+Function         Bfn.  Coefficient  Atom+Function  
  ----- ------------  ---------------      ----- ------------  ---------------
     6     18.639714   1 C  s               304    -12.969359   8 H  s         
   313    -12.967323   9 H  s               322    -12.810461  10 H  s         
   134     10.974277   4 C  s               177      7.065551   5 C  s         
   220      7.064809   6 C  s               144     -6.949257   4 C  pz        
    49     -6.483884   2 C  s                92     -6.484628   3 C  s         

 Vector   37  Occ=0.000000D+00  E= 1.789644D-01
              MO Center=  6.5D-04,  9.3D-08,  1.3D+00, r^2= 1.0D+01
   Bfn.  Coefficient  Atom+Function         Bfn.  Coefficient  Atom+Function  
  ----- ------------  ---------------      ----- ------------  ---------------
   272      1.215349   7 N  py              161      0.895224   4 C  dyz       
   201      0.871531   5 C  dxy             244     -0.871232   6 C  dxy       
    32     -0.857522   1 C  dyz              14     -0.818905   1 C  py        
   143      0.791141   4 C  py              354     -0.608550  13 H  py        
   363     -0.608826  14 H  py              336     -0.577099  11 H  py        

 Vector   38  Occ=0.000000D+00  E= 1.916819D-01
              MO Center= -1.4D-04, -2.7D-06,  4.8D-01, r^2= 1.3D+01
   Bfn.  Coefficient  Atom+Function         Bfn.  Coefficient  Atom+Function  
  ----- ------------  ---------------      ----- ------------  ---------------
    29      5.947744   1 C  dxy              57     -3.306157   2 C  py        
   100      3.306501   3 C  py               75     -3.036209   2 C  dyz       
   118      3.036010   3 C  dyz             186     -1.820099   5 C  py        
   229      1.819602   6 C  py              158      1.248637   4 C  dxy       
   336      1.100790  11 H  py              345     -1.101028  12 H  py        

 Vector   39  Occ=0.000000D+00  E= 1.919874D-01
              MO Center= -3.0D-05,  2.8D-06, -2.2D-01, r^2= 1.6D+01
   Bfn.  Coefficient  Atom+Function         Bfn.  Coefficient  Atom+Function  
  ----- ------------  ---------------      ----- ------------  ---------------
   331     16.592260  11 H  s               340    -16.592054  12 H  s         
   304     15.008799   8 H  s               313    -15.009818   9 H  s         
    48     -8.732053   2 C  s                91      8.732656   3 C  s         
   177     -8.756872   5 C  s               220      8.758800   6 C  s         
    56     -7.542404   2 C  px               99     -7.542522   3 C  px        

 Vector   40  Occ=0.000000D+00  E= 1.945221D-01
              MO Center= -3.8D-05, -3.5D-08,  8.0D-01, r^2= 1.7D+01
   Bfn.  Coefficient  Atom+Function         Bfn.  Coefficient  Atom+Function  
  ----- ------------  ---------------      ----- ------------  ---------------
   322     15.029937  10 H  s                 6     11.207508   1 C  s         
    49     -9.486371   2 C  s                92     -9.487973   3 C  s         
   264     -7.087319   7 N  s                28      6.055480   1 C  dxx       
   178      5.772752   5 C  s               221      5.771761   6 C  s         
   144      5.443957   4 C  pz              134     -4.781004   4 C  s         

 Vector   41  Occ=0.000000D+00  E= 2.008159D-01
              MO Center= -2.2D-04, -1.2D-08, -2.0D+00, r^2= 1.0D+01
   Bfn.  Coefficient  Atom+Function         Bfn.  Coefficient  Atom+Function  
  ----- ------------  ---------------      ----- ------------  ---------------
   143      2.172921   4 C  py               14     -1.891517   1 C  py        
    72     -1.455650   2 C  dxy             115      1.455950   3 C  dxy       
   201      1.435015   5 C  dxy             244     -1.435290   6 C  dxy       
   327     -1.325292  10 H  py               75      1.297548   2 C  dyz       
   118      1.298613   3 C  dyz             204      1.280979   5 C  dyz       

 Vector   42  Occ=0.000000D+00  E= 2.256028D-01
              MO Center=  6.8D-05,  1.2D-08, -7.1D-01, r^2= 1.7D+01
   Bfn.  Coefficient  Atom+Function         Bfn.  Coefficient  Atom+Function  
  ----- ------------  ---------------      ----- ------------  ---------------
   331    -11.735705  11 H  s               340     11.736113  12 H  s         
   304     11.247856   8 H  s               313    -11.247262   9 H  s         
   202      6.682341   5 C  dxz             245      6.682371   6 C  dxz       
    73      5.594687   2 C  dxz             116      5.594776   3 C  dxz       
   159      4.581863   4 C  dxz             178      3.920783   5 C  s         

 Vector   43  Occ=0.000000D+00  E= 2.402808D-01
              MO Center=  2.6D-06,  3.0D-08,  6.1D-02, r^2= 1.5D+01
   Bfn.  Coefficient  Atom+Function         Bfn.  Coefficient  Atom+Function  
  ----- ------------  ---------------      ----- ------------  ---------------
   322     16.839971  10 H  s                 6     13.544277   1 C  s         
    49     -8.979605   2 C  s                92     -8.979819   3 C  s         
   135      8.726979   4 C  s               144      6.448188   4 C  pz        
   134     -5.879010   4 C  s                28      5.328305   1 C  dxx       
    71      4.173770   2 C  dxx             114      4.173756   3 C  dxx       

 Vector   44  Occ=0.000000D+00  E= 2.458564D-01
              MO Center=  1.5D-04, -6.9D-09,  7.5D-01, r^2= 1.4D+01
   Bfn.  Coefficient  Atom+Function         Bfn.  Coefficient  Atom+Function  
  ----- ------------  ---------------      ----- ------------  ---------------
   186      2.376172   5 C  py              229     -2.376835   6 C  py        
   158     -2.006235   4 C  dxy              75      1.220061   2 C  dyz       
   118     -1.220901   3 C  dyz             354     -1.221295  13 H  py        
   363      1.221765  14 H  py              309     -1.190343   8 H  py        
   318      1.190539   9 H  py              287     -1.032054   7 N  dxy       

 Vector   45  Occ=0.000000D+00  E= 2.473541D-01
              MO Center= -2.1D-04,  7.1D-08,  7.0D-01, r^2= 8.7D+00
   Bfn.  Coefficient  Atom+Function         Bfn.  Coefficient  Atom+Function  
  ----- ------------  ---------------      ----- ------------  ---------------
    32      1.363926   1 C  dyz             186     -1.135755   5 C  py        
   272     -1.141056   7 N  py              229     -1.134163   6 C  py        
    75     -1.111738   2 C  dyz             118     -1.110893   3 C  dyz       
    57      1.036736   2 C  py              100      1.036740   3 C  py        
    72     -0.714880   2 C  dxy             115      0.715145   3 C  dxy       

 Vector   46  Occ=0.000000D+00  E= 2.493997D-01
              MO Center=  3.5D-04, -1.1D-07, -4.5D-01, r^2= 1.4D+01
   Bfn.  Coefficient  Atom+Function         Bfn.  Coefficient  Atom+Function  
  ----- ------------  ---------------      ----- ------------  ---------------
   304      5.392142   8 H  s               313      5.392455   9 H  s         
   134     -4.728687   4 C  s               331      4.493400  11 H  s         
   340      4.492574  12 H  s               264     -4.366770   7 N  s         
   263     -4.298754   7 N  s               135     -4.162492   4 C  s         
   349      3.725220  13 H  s               358      3.725814  14 H  s         

 Vector   47  Occ=0.000000D+00  E= 2.557491D-01
              MO Center= -1.1D-04,  4.4D-08, -2.8D-01, r^2= 1.3D+01
   Bfn.  Coefficient  Atom+Function         Bfn.  Coefficient  Atom+Function  
  ----- ------------  ---------------      ----- ------------  ---------------
   143      3.610284   4 C  py              204      1.944654   5 C  dyz       
   247      1.944820   6 C  dyz              72     -1.794331   2 C  dxy       
   115      1.794294   3 C  dxy             201      1.715341   5 C  dxy       
   244     -1.715240   6 C  dxy              57     -1.594516   2 C  py        
   100     -1.594662   3 C  py              336      1.343944  11 H  py        

 Vector   48  Occ=0.000000D+00  E= 2.612082D-01
              MO Center=  8.6D-04,  2.8D-08, -1.2D+00, r^2= 1.6D+01
   Bfn.  Coefficient  Atom+Function         Bfn.  Coefficient  Atom+Function  
  ----- ------------  ---------------      ----- ------------  ---------------
   178     13.716496   5 C  s               221    -13.711830   6 C  s         
    49    -12.185884   2 C  s                92     12.181280   3 C  s         
   304     12.015537   8 H  s               313    -12.013124   9 H  s         
    30      7.607175   1 C  dxz             331     -7.302691  11 H  s         
   340      7.306268  12 H  s                73      6.117061   2 C  dxz       

 Vector   49  Occ=0.000000D+00  E= 2.651540D-01
              MO Center= -5.8D-04, -4.8D-08,  7.5D-01, r^2= 1.6D+01
   Bfn.  Coefficient  Atom+Function         Bfn.  Coefficient  Atom+Function  
  ----- ------------  ---------------      ----- ------------  ---------------
   264     -9.255611   7 N  s                 6      8.607935   1 C  s         
   349     -8.131355  13 H  s               358     -8.134613  14 H  s         
   263      6.837342   7 N  s                15      4.866311   1 C  pz        
   304     -4.345494   8 H  s               313     -4.356175   9 H  s         
   178     -4.013526   5 C  s               221     -4.023873   6 C  s         

 Vector   50  Occ=0.000000D+00  E= 2.709029D-01
              MO Center= -2.3D-04, -1.4D-09,  5.6D-01, r^2= 1.3D+01
   Bfn.  Coefficient  Atom+Function         Bfn.  Coefficient  Atom+Function  
  ----- ------------  ---------------      ----- ------------  ---------------
    49      6.117050   2 C  s                92     -6.118552   3 C  s         
   159      5.313958   4 C  dxz              71     -4.644697   2 C  dxx       
   114      4.644739   3 C  dxx              13     -3.817128   1 C  px        
   142     -3.705906   4 C  px              349      3.371842  13 H  s         
   358     -3.368869  14 H  s                58      2.969995   2 C  pz        

 Vector   51  Occ=0.000000D+00  E= 2.821013D-01
              MO Center=  3.9D-05, -3.9D-08, -3.7D-02, r^2= 1.5D+01
   Bfn.  Coefficient  Atom+Function         Bfn.  Coefficient  Atom+Function  
  ----- ------------  ---------------      ----- ------------  ---------------
     6     24.338423   1 C  s               264    -16.581730   7 N  s         
   331      6.950577  11 H  s               340      6.950005  12 H  s         
    49     -6.587144   2 C  s                92     -6.587766   3 C  s         
   157     -5.402890   4 C  dxx             135      5.365256   4 C  s         
    73     -4.571552   2 C  dxz             116      4.571332   3 C  dxz       

 Vector   52  Occ=0.000000D+00  E= 2.844380D-01
              MO Center=  5.1D-05, -5.3D-08, -7.3D-01, r^2= 1.4D+01
   Bfn.  Coefficient  Atom+Function         Bfn.  Coefficient  Atom+Function  
  ----- ------------  ---------------      ----- ------------  ---------------
   135     13.771914   4 C  s               304    -12.402097   8 H  s         
   313    -12.403086   9 H  s               263     11.082233   7 N  s         
   331    -10.876614  11 H  s               340    -10.874041  12 H  s         
   178    -10.797856   5 C  s               221    -10.796811   6 C  s         
   134     10.240142   4 C  s               177      7.960733   5 C  s         

 Vector   53  Occ=0.000000D+00  E= 2.849285D-01
              MO Center= -2.3D-04,  1.7D-08, -7.2D-01, r^2= 1.5D+01
   Bfn.  Coefficient  Atom+Function         Bfn.  Coefficient  Atom+Function  
  ----- ------------  ---------------      ----- ------------  ---------------
   178      4.454155   5 C  s               221     -4.458524   6 C  s         
   304     -4.195524   8 H  s               313      4.192427   9 H  s         
    49      3.829055   2 C  s                92     -3.829815   3 C  s         
   331      3.583472  11 H  s               340     -3.586268  12 H  s         
   200     -3.478046   5 C  dxx             243      3.478531   6 C  dxx       

 Vector   54  Occ=0.000000D+00  E= 3.023676D-01
              MO Center=  7.5D-05, -1.2D-08, -1.5D-01, r^2= 1.4D+01
   Bfn.  Coefficient  Atom+Function         Bfn.  Coefficient  Atom+Function  
  ----- ------------  ---------------      ----- ------------  ---------------
   264      9.139313   7 N  s                49      7.860023   2 C  s         
    92      7.860848   3 C  s                 6     -7.809076   1 C  s         
   178     -7.476924   5 C  s               221     -7.476803   6 C  s         
   322     -6.624559  10 H  s               331     -4.976904  11 H  s         
   340     -4.975119  12 H  s               162      4.826293   4 C  dzz       

 Vector   55  Occ=0.000000D+00  E= 3.127525D-01
              MO Center=  9.9D-05, -1.8D-08, -1.1D-01, r^2= 1.4D+01
   Bfn.  Coefficient  Atom+Function         Bfn.  Coefficient  Atom+Function  
  ----- ------------  ---------------      ----- ------------  ---------------
    29      4.018124   1 C  dxy              57     -3.266957   2 C  py        
   100      3.266673   3 C  py               75     -1.737665   2 C  dyz       
   118      1.737766   3 C  dyz             158     -1.576084   4 C  dxy       
   186      1.467526   5 C  py              229     -1.466823   6 C  py        
   336      1.230541  11 H  py              345     -1.230578  12 H  py        

 Vector   56  Occ=0.000000D+00  E= 3.164360D-01
              MO Center=  9.0D-06,  6.1D-05,  8.8D-01, r^2= 1.7D+01
   Bfn.  Coefficient  Atom+Function         Bfn.  Coefficient  Atom+Function  
  ----- ------------  ---------------      ----- ------------  ---------------
   264     13.683638   7 N  s               349    -12.274732  13 H  s         
   358    -12.274360  14 H  s               135    -11.146711   4 C  s         
   178     10.274776   5 C  s               221     10.275152   6 C  s         
   304    -10.294314   8 H  s               313    -10.291930   9 H  s         
   134      8.941163   4 C  s               322     -8.903173  10 H  s         

 Vector   57  Occ=0.000000D+00  E= 3.164421D-01
              MO Center=  3.4D-05, -6.1D-05,  7.7D-01, r^2= 8.6D+00
   Bfn.  Coefficient  Atom+Function         Bfn.  Coefficient  Atom+Function  
  ----- ------------  ---------------      ----- ------------  ---------------
    32      5.717828   1 C  dyz              72     -2.398078   2 C  dxy       
   115      2.398196   3 C  dxy              14     -1.664680   1 C  py        
   290      1.601978   7 N  dyz              57      1.509961   2 C  py        
   100      1.509654   3 C  py              354     -1.126295  13 H  py        
   363     -1.126225  14 H  py              186      0.960785   5 C  py        

 Vector   58  Occ=0.000000D+00  E= 3.243858D-01
              MO Center= -2.8D-06, -3.6D-09,  1.0D+00, r^2= 1.5D+01
   Bfn.  Coefficient  Atom+Function         Bfn.  Coefficient  Atom+Function  
  ----- ------------  ---------------      ----- ------------  ---------------
   349     13.371389  13 H  s               358    -13.371710  14 H  s         
    30     10.242233   1 C  dxz             142      5.430074   4 C  px        
   178     -5.185702   5 C  s               221      5.186569   6 C  s         
    13      5.006171   1 C  px              202     -4.786163   5 C  dxz       
   245     -4.785903   6 C  dxz             200      3.843707   5 C  dxx       

 Vector   59  Occ=0.000000D+00  E= 3.350610D-01
              MO Center= -4.3D-05, -4.0D-08, -6.7D-01, r^2= 1.5D+01
   Bfn.  Coefficient  Atom+Function         Bfn.  Coefficient  Atom+Function  
  ----- ------------  ---------------      ----- ------------  ---------------
     6     23.434189   1 C  s               135    -15.258367   4 C  s         
   264    -14.759614   7 N  s                49    -12.704859   2 C  s         
    92    -12.704886   3 C  s               178     11.084737   5 C  s         
   221     11.085911   6 C  s               304    -11.006801   8 H  s         
   313    -11.005353   9 H  s                73     -6.948903   2 C  dxz       

 Vector   60  Occ=0.000000D+00  E= 3.399756D-01
              MO Center= -9.6D-05,  1.9D-08, -8.9D-01, r^2= 1.0D+01
   Bfn.  Coefficient  Atom+Function         Bfn.  Coefficient  Atom+Function  
  ----- ------------  ---------------      ----- ------------  ---------------
   186     -4.796214   5 C  py              229     -4.796581   6 C  py        
   143      4.571085   4 C  py               57      3.505551   2 C  py        
   100      3.506100   3 C  py              161      3.107180   4 C  dyz       
    75     -2.365308   2 C  dyz             118     -2.364916   3 C  dyz       
   201      1.825424   5 C  dxy             244     -1.825579   6 C  dxy       

 Vector   61  Occ=0.000000D+00  E= 3.431806D-01
              MO Center= -4.2D-05,  2.5D-08, -1.1D-01, r^2= 1.3D+01
   Bfn.  Coefficient  Atom+Function         Bfn.  Coefficient  Atom+Function  
  ----- ------------  ---------------      ----- ------------  ---------------
   304      7.276416   8 H  s               313     -7.276118   9 H  s         
    49      6.838684   2 C  s                92     -6.839891   3 C  s         
   349     -6.190942  13 H  s               358      6.189206  14 H  s         
   159     -5.159988   4 C  dxz              71     -4.948808   2 C  dxx       
   114      4.948774   3 C  dxx              76     -3.593391   2 C  dzz       

 Vector   62  Occ=0.000000D+00  E= 3.504912D-01
              MO Center=  1.5D-05,  5.1D-08, -9.8D-02, r^2= 1.4D+01
   Bfn.  Coefficient  Atom+Function         Bfn.  Coefficient  Atom+Function  
  ----- ------------  ---------------      ----- ------------  ---------------
   322     16.886638  10 H  s                 6    -13.158809   1 C  s         
   134    -11.997613   4 C  s               304     11.431901   8 H  s         
   313     11.430951   9 H  s                33     10.758194   1 C  dzz       
   144     10.126336   4 C  pz               28      7.591805   1 C  dxx       
   349     -7.555712  13 H  s               358     -7.557398  14 H  s         

 Vector   63  Occ=0.000000D+00  E= 3.661798D-01
              MO Center=  9.0D-06,  4.6D-08,  1.0D-01, r^2= 1.0D+01
   Bfn.  Coefficient  Atom+Function         Bfn.  Coefficient  Atom+Function  
  ----- ------------  ---------------      ----- ------------  ---------------
    32      6.812009   1 C  dyz              14     -4.850950   1 C  py        
    72     -3.395551   2 C  dxy             115      3.395895   3 C  dxy       
    57      3.208327   2 C  py              100      3.208737   3 C  py        
   186     -1.826366   5 C  py              229     -1.826636   6 C  py        
   143      1.795562   4 C  py              290      1.112757   7 N  dyz       

 Vector   64  Occ=0.000000D+00  E= 3.742400D-01
              MO Center=  1.2D-04, -7.6D-08, -6.1D-01, r^2= 1.4D+01
   Bfn.  Coefficient  Atom+Function         Bfn.  Coefficient  Atom+Function  
  ----- ------------  ---------------      ----- ------------  ---------------
   322     23.711348  10 H  s               134    -10.715773   4 C  s         
   144      9.335305   4 C  pz              177     -7.329804   5 C  s         
   220     -7.325754   6 C  s               187      6.723586   5 C  pz        
   230      6.722084   6 C  pz              304      6.732078   8 H  s         
   313      6.724745   9 H  s                76     -6.423518   2 C  dzz       

 Vector   65  Occ=0.000000D+00  E= 3.753417D-01
              MO Center= -3.8D-05, -2.1D-08,  4.0D-01, r^2= 1.3D+01
   Bfn.  Coefficient  Atom+Function         Bfn.  Coefficient  Atom+Function  
  ----- ------------  ---------------      ----- ------------  ---------------
   331     19.774809  11 H  s               340    -19.772802  12 H  s         
   304     18.767867   8 H  s               313    -18.769042   9 H  s         
    48    -10.267381   2 C  s                91     10.267674   3 C  s         
   177    -10.057964   5 C  s               220     10.060747   6 C  s         
   185     -9.555341   5 C  px              228     -9.555642   6 C  px        

 Vector   66  Occ=0.000000D+00  E= 3.786886D-01
              MO Center=  1.9D-05, -2.2D-08,  7.5D-01, r^2= 1.1D+01
   Bfn.  Coefficient  Atom+Function         Bfn.  Coefficient  Atom+Function  
  ----- ------------  ---------------      ----- ------------  ---------------
     6     12.247355   1 C  s               304    -11.637586   8 H  s         
   313    -11.639257   9 H  s                33    -10.203297   1 C  dzz       
   202     -7.790402   5 C  dxz             245      7.792037   6 C  dxz       
    58     -7.079046   2 C  pz              101     -7.079612   3 C  pz        
    49     -6.929378   2 C  s                92     -6.929906   3 C  s         

 Vector   67  Occ=0.000000D+00  E= 3.828642D-01
              MO Center= -1.2D-04,  4.1D-08, -4.7D-01, r^2= 1.5D+01
   Bfn.  Coefficient  Atom+Function         Bfn.  Coefficient  Atom+Function  
  ----- ------------  ---------------      ----- ------------  ---------------
   331     12.415302  11 H  s               340    -12.416313  12 H  s         
   304      9.953233   8 H  s               313     -9.957426   9 H  s         
   142     -6.996024   4 C  px              185     -6.692402   5 C  px        
   228     -6.693310   6 C  px               30      6.486249   1 C  dxz       
    48     -6.359322   2 C  s                91      6.359993   3 C  s         

 Vector   68  Occ=0.000000D+00  E= 3.959890D-01
              MO Center= -1.9D-05, -6.6D-08, -8.7D-01, r^2= 1.4D+01
   Bfn.  Coefficient  Atom+Function         Bfn.  Coefficient  Atom+Function  
  ----- ------------  ---------------      ----- ------------  ---------------
   322     10.379706  10 H  s                33     -7.478656   1 C  dzz       
    71      5.694149   2 C  dxx             114      5.693477   3 C  dxx       
   157      5.337696   4 C  dxx             264      4.396001   7 N  s         
   328      4.294352  10 H  pz               31     -3.933838   1 C  dyy       
    15      3.732219   1 C  pz              205     -3.679704   5 C  dzz       

 Vector   69  Occ=0.000000D+00  E= 4.042298D-01
              MO Center=  2.9D-04, -4.4D-08,  1.6D-01, r^2= 1.3D+01
   Bfn.  Coefficient  Atom+Function         Bfn.  Coefficient  Atom+Function  
  ----- ------------  ---------------      ----- ------------  ---------------
    72      8.406374   2 C  dxy             115      8.405394   3 C  dxy       
    29      7.745033   1 C  dxy             201     -4.530683   5 C  dxy       
   244     -4.531486   6 C  dxy             336     -4.210221  11 H  py        
   345      4.209634  12 H  py               57     -3.523958   2 C  py        
   100      3.523443   3 C  py              158     -1.976858   4 C  dxy       

 Vector   70  Occ=0.000000D+00  E= 4.103932D-01
              MO Center=  4.1D-05,  7.1D-08, -1.2D+00, r^2= 1.1D+01
   Bfn.  Coefficient  Atom+Function         Bfn.  Coefficient  Atom+Function  
  ----- ------------  ---------------      ----- ------------  ---------------
    29      5.787796   1 C  dxy             201      2.666462   5 C  dxy       
   244      2.666022   6 C  dxy             309     -2.676569   8 H  py        
   318      2.676351   9 H  py              204     -2.491301   5 C  dyz       
   247      2.490968   6 C  dyz              75     -2.422028   2 C  dyz       
   118      2.422019   3 C  dyz             158      2.107385   4 C  dxy       

 Vector   71  Occ=0.000000D+00  E= 4.222841D-01
              MO Center=  1.9D-04,  4.6D-09,  7.8D-01, r^2= 1.4D+01
   Bfn.  Coefficient  Atom+Function         Bfn.  Coefficient  Atom+Function  
  ----- ------------  ---------------      ----- ------------  ---------------
   304      7.620568   8 H  s               313     -7.619331   9 H  s         
    76     -6.375564   2 C  dzz             119      6.374194   3 C  dzz       
   202      5.778666   5 C  dxz             245      5.776350   6 C  dxz       
    13      4.601291   1 C  px              205     -4.583126   5 C  dzz       
   248      4.581709   6 C  dzz             159      4.333301   4 C  dxz       

 Vector   72  Occ=0.000000D+00  E= 4.241570D-01
              MO Center= -2.2D-04,  1.3D-07, -2.0D+00, r^2= 1.1D+01
   Bfn.  Coefficient  Atom+Function         Bfn.  Coefficient  Atom+Function  
  ----- ------------  ---------------      ----- ------------  ---------------
   161     10.494725   4 C  dyz             327      5.748627  10 H  py        
   201      4.780808   5 C  dxy             244     -4.778986   6 C  dxy       
   143      3.566629   4 C  py               14      2.962328   1 C  py        
   186     -2.843976   5 C  py              229     -2.843178   6 C  py        
    32     -1.844454   1 C  dyz              72      1.735508   2 C  dxy       

 Vector   73  Occ=0.000000D+00  E= 4.288407D-01
              MO Center=  6.5D-05,  3.0D-08, -1.7D+00, r^2= 1.0D+01
   Bfn.  Coefficient  Atom+Function         Bfn.  Coefficient  Atom+Function  
  ----- ------------  ---------------      ----- ------------  ---------------
   159     21.044661   4 C  dxz             142    -13.774557   4 C  px        
    13    -11.565704   1 C  px              326      9.025266  10 H  px        
   304      8.862028   8 H  s               313     -8.860546   9 H  s         
    73     -8.309433   2 C  dxz             116     -8.310850   3 C  dxz       
   202      7.783858   5 C  dxz             245      7.780472   6 C  dxz       

 Vector   74  Occ=0.000000D+00  E= 4.339613D-01
              MO Center= -1.6D-04, -1.2D-07, -2.9D-01, r^2= 1.3D+01
   Bfn.  Coefficient  Atom+Function         Bfn.  Coefficient  Atom+Function  
  ----- ------------  ---------------      ----- ------------  ---------------
     6     19.289026   1 C  s                33    -13.669182   1 C  dzz       
   202    -13.556875   5 C  dxz             245     13.557261   6 C  dxz       
    58    -10.349848   2 C  pz              101    -10.349291   3 C  pz        
    49     -9.779042   2 C  s                92     -9.778173   3 C  s         
    15      8.133340   1 C  pz              205      7.610958   5 C  dzz       

 Vector   75  Occ=0.000000D+00  E= 4.408724D-01
              MO Center=  4.2D-04, -4.4D-07, -1.1D-01, r^2= 1.3D+01
   Bfn.  Coefficient  Atom+Function         Bfn.  Coefficient  Atom+Function  
  ----- ------------  ---------------      ----- ------------  ---------------
   142     12.970316   4 C  px              349    -12.569282  13 H  s         
   358     12.565389  14 H  s               200     12.238914   5 C  dxx       
   243    -12.235938   6 C  dxx             331    -11.984405  11 H  s         
   340     11.987182  12 H  s               304    -11.444138   8 H  s         
   313     11.449390   9 H  s                48      8.114440   2 C  s         

 Vector   76  Occ=0.000000D+00  E= 4.420745D-01
              MO Center=  1.9D-04,  2.5D-07,  7.6D-01, r^2= 1.2D+01
   Bfn.  Coefficient  Atom+Function         Bfn.  Coefficient  Atom+Function  
  ----- ------------  ---------------      ----- ------------  ---------------
   201      6.294848   5 C  dxy             244      6.293062   6 C  dxy       
    75     -5.632302   2 C  dyz             118      5.631220   3 C  dyz       
    72     -4.212714   2 C  dxy             115     -4.211119   3 C  dxy       
   204     -3.663696   5 C  dyz             247      3.662620   6 C  dyz       
   309     -3.555104   8 H  py              318      3.554078   9 H  py        

 Vector   77  Occ=0.000000D+00  E= 4.435105D-01
              MO Center= -4.7D-04,  3.2D-08, -8.1D-02, r^2= 1.4D+01
   Bfn.  Coefficient  Atom+Function         Bfn.  Coefficient  Atom+Function  
  ----- ------------  ---------------      ----- ------------  ---------------
   202     15.406494   5 C  dxz             245    -15.404840   6 C  dxz       
    58     14.917345   2 C  pz              101     14.919181   3 C  pz        
   187     14.417558   5 C  pz              230     14.417636   6 C  pz        
   157     13.732209   4 C  dxx              33     12.717612   1 C  dzz       
   322     11.777713  10 H  s                28     -9.945966   1 C  dxx       

 Vector   78  Occ=0.000000D+00  E= 4.549900D-01
              MO Center= -2.5D-04, -6.8D-08, -1.2D+00, r^2= 1.0D+01
   Bfn.  Coefficient  Atom+Function         Bfn.  Coefficient  Atom+Function  
  ----- ------------  ---------------      ----- ------------  ---------------
   201      6.995801   5 C  dxy             244     -6.996679   6 C  dxy       
   143      6.242272   4 C  py              161      5.357271   4 C  dyz       
    57      3.943952   2 C  py              100      3.943454   3 C  py        
   309     -3.953969   8 H  py              318     -3.954656   9 H  py        
   204     -3.508363   5 C  dyz             247     -3.509180   6 C  dyz       

 Vector   79  Occ=0.000000D+00  E= 4.575657D-01
              MO Center= -3.7D-05,  1.5D-07, -3.5D-01, r^2= 1.3D+01
   Bfn.  Coefficient  Atom+Function         Bfn.  Coefficient  Atom+Function  
  ----- ------------  ---------------      ----- ------------  ---------------
    30     22.763339   1 C  dxz             331    -21.068604  11 H  s         
   340     21.069797  12 H  s               304     15.362318   8 H  s         
   313    -15.365489   9 H  s                73     14.886989   2 C  dxz       
   116     14.886436   3 C  dxz              49    -11.521981   2 C  s         
    92     11.522118   3 C  s               178     10.581552   5 C  s         

 Vector   80  Occ=0.000000D+00  E= 4.595888D-01
              MO Center= -1.6D-04,  2.0D-08, -1.1D-01, r^2= 1.1D+01
   Bfn.  Coefficient  Atom+Function         Bfn.  Coefficient  Atom+Function  
  ----- ------------  ---------------      ----- ------------  ---------------
   322     11.898784  10 H  s               135      8.325057   4 C  s         
   144      8.032604   4 C  pz               76     -7.128355   2 C  dzz       
   119     -7.125241   3 C  dzz             205     -6.893799   5 C  dzz       
   248     -6.892756   6 C  dzz              15     -6.719569   1 C  pz        
    28      6.445383   1 C  dxx              33      5.790745   1 C  dzz       

 Vector   81  Occ=0.000000D+00  E= 4.911486D-01
              MO Center=  3.1D-05, -8.5D-08,  8.6D-01, r^2= 1.1D+01
   Bfn.  Coefficient  Atom+Function         Bfn.  Coefficient  Atom+Function  
  ----- ------------  ---------------      ----- ------------  ---------------
   162     12.431217   4 C  dzz             322    -11.808549  10 H  s         
   187    -10.120453   5 C  pz              230    -10.119487   6 C  pz        
   304    -10.076248   8 H  s               313    -10.075320   9 H  s         
    73     -9.946555   2 C  dxz             116      9.944796   3 C  dxz       
    33     -9.452696   1 C  dzz              28      8.188132   1 C  dxx       

 Vector   82  Occ=0.000000D+00  E= 4.936251D-01
              MO Center= -3.8D-05,  2.8D-07,  1.4D+00, r^2= 1.1D+01
   Bfn.  Coefficient  Atom+Function         Bfn.  Coefficient  Atom+Function  
  ----- ------------  ---------------      ----- ------------  ---------------
    32     13.162492   1 C  dyz              75     -9.778372   2 C  dyz       
   118     -9.777713   3 C  dyz              72     -7.970433   2 C  dxy       
   115      7.971498   3 C  dxy             186     -7.791661   5 C  py        
   229     -7.791406   6 C  py              201      5.495290   5 C  dxy       
   244     -5.496450   6 C  dxy             161      5.373386   4 C  dyz       

 Vector   83  Occ=0.000000D+00  E= 5.054247D-01
              MO Center= -1.7D-05, -2.8D-08,  2.6D-01, r^2= 1.7D+01
   Bfn.  Coefficient  Atom+Function         Bfn.  Coefficient  Atom+Function  
  ----- ------------  ---------------      ----- ------------  ---------------
   331     35.441833  11 H  s               340    -35.439440  12 H  s         
   304     22.537747   8 H  s               313    -22.536279   9 H  s         
    13    -20.914634   1 C  px               48    -18.800743   2 C  s         
    91     18.800536   3 C  s               202     17.211957   5 C  dxz       
   245     17.211438   6 C  dxz             177    -17.018233   5 C  s         

 Vector   84  Occ=0.000000D+00  E= 5.125081D-01
              MO Center= -9.1D-06, -3.3D-07,  1.0D+00, r^2= 9.8D+00
   Bfn.  Coefficient  Atom+Function         Bfn.  Coefficient  Atom+Function  
  ----- ------------  ---------------      ----- ------------  ---------------
   264     24.172843   7 N  s                28    -14.300554   1 C  dxx       
   322    -13.108751  10 H  s                 6    -12.270848   1 C  s         
    33    -10.818810   1 C  dzz              73      8.370516   2 C  dxz       
   116     -8.369438   3 C  dxz             134      7.735158   4 C  s         
   178      6.503089   5 C  s               221      6.502800   6 C  s         

 Vector   85  Occ=0.000000D+00  E= 5.190620D-01
              MO Center=  4.4D-04,  6.3D-07, -1.2D+00, r^2= 1.4D+01
   Bfn.  Coefficient  Atom+Function         Bfn.  Coefficient  Atom+Function  
  ----- ------------  ---------------      ----- ------------  ---------------
   161     24.613417   4 C  dyz             201     18.742965   5 C  dxy       
   244    -18.737659   6 C  dxy              14    -17.940723   1 C  py        
    72    -14.697670   2 C  dxy             115     14.693842   3 C  dxy       
   143     12.196691   4 C  py               57     12.110131   2 C  py        
   100     12.106336   3 C  py              186    -11.778645   5 C  py        

 Vector   86  Occ=0.000000D+00  E= 5.201459D-01
              MO Center=  1.4D-04, -1.2D-07,  5.8D-01, r^2= 1.4D+01
   Bfn.  Coefficient  Atom+Function         Bfn.  Coefficient  Atom+Function  
  ----- ------------  ---------------      ----- ------------  ---------------
   331     28.688163  11 H  s               340    -28.682665  12 H  s         
    73    -18.998932   2 C  dxz             116    -18.995303   3 C  dxz       
   304     18.054309   8 H  s               313    -18.047870   9 H  s         
    13    -13.668794   1 C  px               48    -13.354523   2 C  s         
    91     13.352795   3 C  s               177    -12.634439   5 C  s         

 Vector   87  Occ=0.000000D+00  E= 5.230262D-01
              MO Center= -5.1D-04,  1.1D-07,  5.8D-02, r^2= 1.1D+01
   Bfn.  Coefficient  Atom+Function         Bfn.  Coefficient  Atom+Function  
  ----- ------------  ---------------      ----- ------------  ---------------
    29     14.669099   1 C  dxy             201     -8.137488   5 C  dxy       
   244     -8.149849   6 C  dxy              75     -6.948071   2 C  dyz       
   118      6.945569   3 C  dyz              57     -6.469706   2 C  py        
   100      6.477464   3 C  py               72      5.663255   2 C  dxy       
   115      5.672358   3 C  dxy             186     -4.292648   5 C  py        

 Vector   88  Occ=0.000000D+00  E= 5.358137D-01
              MO Center= -3.9D-05,  6.9D-08, -1.4D+00, r^2= 1.3D+01
   Bfn.  Coefficient  Atom+Function         Bfn.  Coefficient  Atom+Function  
  ----- ------------  ---------------      ----- ------------  ---------------
   322     59.924456  10 H  s               162    -35.103980   4 C  dzz       
   331    -20.817953  11 H  s               340    -20.818379  12 H  s         
   187     20.153677   5 C  pz              230     20.152027   6 C  pz        
    33    -16.281089   1 C  dzz              73     15.996858   2 C  dxz       
   116    -15.996298   3 C  dxz             202    -15.507019   5 C  dxz       

 Vector   89  Occ=0.000000D+00  E= 5.365617D-01
              MO Center=  1.2D-05, -7.7D-08, -6.2D-01, r^2= 1.4D+01
   Bfn.  Coefficient  Atom+Function         Bfn.  Coefficient  Atom+Function  
  ----- ------------  ---------------      ----- ------------  ---------------
   304     41.639622   8 H  s               313    -41.632585   9 H  s         
   331    -29.317816  11 H  s               340     29.329460  12 H  s         
   202     27.769449   5 C  dxz             245     27.761691   6 C  dxz       
    73     20.674830   2 C  dxz             116     20.682334   3 C  dxz       
   200    -19.449809   5 C  dxx             243     19.448357   6 C  dxx       

 Vector   90  Occ=0.000000D+00  E= 5.396639D-01
              MO Center= -1.4D-04, -3.3D-07, -4.6D-01, r^2= 1.1D+01
   Bfn.  Coefficient  Atom+Function         Bfn.  Coefficient  Atom+Function  
  ----- ------------  ---------------      ----- ------------  ---------------
   331    -19.377441  11 H  s               340    -19.370359  12 H  s         
   135     19.236680   4 C  s               178    -17.579474   5 C  s         
   221    -17.582826   6 C  s                49     14.425315   2 C  s         
    92     14.427803   3 C  s                33    -13.437201   1 C  dzz       
     6    -12.080963   1 C  s               134     11.475948   4 C  s         

 Vector   91  Occ=0.000000D+00  E= 5.597288D-01
              MO Center= -1.2D-04, -1.9D-08, -2.6D-01, r^2= 1.3D+01
   Bfn.  Coefficient  Atom+Function         Bfn.  Coefficient  Atom+Function  
[...]

     Occ.   23  a   ---  Virt.   37  a       -0.07915
     Occ.   24  a   ---  Virt.   27  a       -0.36689
     Occ.   25  a   ---  Virt.   30  a       -0.90411
     Occ.   25  a   ---  Virt.   37  a       -0.10288
  ----------------------------------------------------------------------------
  Root   4 singlet a              0.222850238 a.u.                6.0641 eV 
  ----------------------------------------------------------------------------
     Transition Moments    X -0.00000   Y -0.00200   Z  0.00000
     Transition Moments   XX -0.00000  XY -0.00003  XZ  0.00000
     Transition Moments   YY  0.00000  YZ -2.40853  ZZ -0.00000
     Dipole Oscillator Strength                    0.0000005956
     Electric Quadrupole                           0.0000003419
     Magnetic Dipole                               0.0000011704
     Total Oscillator Strength                     0.0000021079

     Occ.   23  a   ---  Virt.   26  a        0.14637
     Occ.   23  a   ---  Virt.   31  a        0.08730
     Occ.   25  a   ---  Virt.   26  a       -0.27279
     Occ.   25  a   ---  Virt.   28  a        0.89901
     Occ.   25  a   ---  Virt.   31  a        0.16667
     Occ.   25  a   ---  Virt.   33  a       -0.15083
     Occ.   25  a   ---  Virt.   34  a       -0.07678
     Occ.   25  a   ---  Virt.   43  a       -0.07474
     Occ.   25  a   ---  Virt.   46  a       -0.09811
     Occ.   25  a   ---  Virt.   49  a       -0.07078
  ----------------------------------------------------------------------------
  Root   5 singlet a              0.224221506 a.u.                6.1014 eV 
  ----------------------------------------------------------------------------
     Transition Moments    X -0.00000   Y -0.00009   Z -0.00000
     Transition Moments   XX  0.00000  XY  0.47644  XZ  0.00000
     Transition Moments   YY -0.00000  YZ  0.00037  ZZ -0.00000
     Dipole Oscillator Strength                    0.0000000012
     Electric Quadrupole                           0.0000000136
     Magnetic Dipole                               0.0000001078
     Total Oscillator Strength                     0.0000001226

     Occ.   23  a   ---  Virt.   29  a        0.06860
     Occ.   23  a   ---  Virt.   32  a       -0.09709
     Occ.   23  a   ---  Virt.   35  a        0.05844
     Occ.   24  a   ---  Virt.   26  a       -0.17492
     Occ.   24  a   ---  Virt.   31  a        0.05479
     Occ.   25  a   ---  Virt.   29  a        0.90171
     Occ.   25  a   ---  Virt.   32  a       -0.30798
     Occ.   25  a   ---  Virt.   35  a        0.13399
     Occ.   25  a   ---  Virt.   50  a       -0.10434
     Occ.   25  a   ---  Virt.   53  a       -0.06310
  ----------------------------------------------------------------------------
  Root   6 singlet a              0.250491132 a.u.                6.8162 eV 
  ----------------------------------------------------------------------------
     Transition Moments    X -0.00000   Y  0.03671   Z -0.00000
     Transition Moments   XX -0.00000  XY  0.00056  XZ  0.00000
     Transition Moments   YY -0.00000  YZ -0.20448  ZZ -0.00000
     Dipole Oscillator Strength                    0.0002250838
     Electric Quadrupole                           0.0000000035
     Magnetic Dipole                               0.0000000001
     Total Oscillator Strength                     0.0002250874

     Occ.   23  a   ---  Virt.   36  a       -0.06782
     Occ.   24  a   ---  Virt.   29  a       -0.12326
     Occ.   25  a   ---  Virt.   26  a        0.08476
     Occ.   25  a   ---  Virt.   28  a       -0.06958
     Occ.   25  a   ---  Virt.   31  a       -0.22960
     Occ.   25  a   ---  Virt.   33  a       -0.92165
     Occ.   25  a   ---  Virt.   34  a        0.13577
     Occ.   25  a   ---  Virt.   40  a        0.07622
     Occ.   25  a   ---  Virt.   43  a        0.07653
     Occ.   25  a   ---  Virt.   51  a        0.09677
     Occ.   25  a   ---  Virt.   52  a       -0.11179
  ----------------------------------------------------------------------------
  Root   7 singlet a              0.253170234 a.u.                6.8891 eV 
  ----------------------------------------------------------------------------
     Transition Moments    X  0.00000   Y -0.48318   Z -0.00000
     Transition Moments   XX  0.00000  XY  0.00137  XZ -0.00000
     Transition Moments   YY  0.00000  YZ  0.54789  ZZ  0.00000
     Dipole Oscillator Strength                    0.0394042067
     Electric Quadrupole                           0.0000000259
     Magnetic Dipole                               0.0000000197
     Total Oscillator Strength                     0.0394042523

     Occ.   20  a   ---  Virt.   26  a        0.05482
     Occ.   23  a   ---  Virt.   28  a        0.18321
     Occ.   23  a   ---  Virt.   34  a       -0.07913
     Occ.   24  a   ---  Virt.   29  a        0.14963
     Occ.   25  a   ---  Virt.   28  a       -0.21401
     Occ.   25  a   ---  Virt.   31  a        0.88082
     Occ.   25  a   ---  Virt.   33  a       -0.24571
     Occ.   25  a   ---  Virt.   34  a       -0.15348
     Occ.   25  a   ---  Virt.   43  a       -0.07664
     Occ.   25  a   ---  Virt.   52  a       -0.06390
     Occ.   25  a   ---  Virt.   54  a        0.05432
     Occ.   25  a   ---  Virt.   56  a       -0.05766
  ----------------------------------------------------------------------------
  Root   8 singlet a              0.256391739 a.u.                6.9768 eV 
  ----------------------------------------------------------------------------
     Transition Moments    X  0.00000   Y -0.00018   Z  0.00000
     Transition Moments   XX  0.00000  XY -1.96510  XZ -0.00000
     Transition Moments   YY  0.00000  YZ  0.00012  ZZ -0.00000
     Dipole Oscillator Strength                    0.0000000054
     Electric Quadrupole                           0.0000003466
     Magnetic Dipole                               0.0000008151
     Total Oscillator Strength                     0.0000011671

     Occ.   20  a   ---  Virt.   29  a        0.05756
     Occ.   23  a   ---  Virt.   29  a       -0.14670
     Occ.   23  a   ---  Virt.   32  a       -0.05834
     Occ.   24  a   ---  Virt.   26  a        0.71089
     Occ.   24  a   ---  Virt.   28  a       -0.25046
     Occ.   24  a   ---  Virt.   31  a       -0.06240
     Occ.   24  a   ---  Virt.   33  a        0.09234
     Occ.   24  a   ---  Virt.   46  a        0.11127
     Occ.   25  a   ---  Virt.   29  a        0.33601
     Occ.   25  a   ---  Virt.   32  a        0.49829
     Occ.   25  a   ---  Virt.   35  a       -0.05298
     Occ.   25  a   ---  Virt.   53  a       -0.05268

              Target root =      1
          Target symmetry = none
      Ground state energy =   -287.444022578355
        Excitation energy =      0.178879673284
     Excited state energy =   -287.265142905070

  stored tddft:energy   -287.26514290507021     

    8 smallest eigenvalue differences (eV) 
--------------------------------------------------------
  No. Spin  Occ  Vir  Irrep   E(Occ)    E(Vir)   E(Diff)
--------------------------------------------------------
    1    1   25   26 a        -0.283     0.059     9.308
    2    1   25   27 a        -0.283     0.063     9.426
    3    1   25   28 a        -0.283     0.074     9.709
    4    1   25   29 a        -0.283     0.077     9.804
    5    1   25   30 a        -0.283     0.080     9.876
    6    1   25   31 a        -0.283     0.098    10.377
    7    1   25   32 a        -0.283     0.100    10.432
    8    1   24   26 a        -0.336     0.059    10.761
--------------------------------------------------------

  Entering Davidson iterations
  Restricted triplet excited states

  Iter   NTrls   NConv    DeltaV     DeltaE      Time   
  ----  ------  ------  ---------  ---------  --------- 
    1      8       0     0.61E-01   0.10+100      158.2
    2     16       0     0.19E-01   0.13E-01      158.5
    3     24       0     0.18E+00   0.21E-01      159.7
    4     32       0     0.54E-01   0.31E-01      159.3
    5     40       0     0.95E-01   0.27E-01      160.5
    6     48       1     0.29E-01   0.63E-02      159.4
    7     55       3     0.12E-01   0.16E-02      151.5
    8     60       4     0.50E-02   0.16E-03      135.6
    9     64       6     0.20E-02   0.22E-04      126.0
   10     66       6     0.76E-03   0.29E-05      107.9
   11     68       7     0.19E-03   0.26E-06      107.7
   12     69       8     0.83E-04   0.17E-07       99.5
  ----  ------  ------  ---------  ---------  --------- 
  Convergence criterion met

  Ground state a        -287.444022578355 a.u.

  ----------------------------------------------------------------------------
  Root   1 triplet a              0.141436901 a.u.                3.8487 eV 
  ----------------------------------------------------------------------------
     Transition Moments                    Spin forbidden
     Oscillator Strength                   Spin forbidden

     Occ.   20  a   ---  Virt.   27  a        0.07175
     Occ.   23  a   ---  Virt.   27  a        0.12243
     Occ.   24  a   ---  Virt.   30  a       -0.05486
     Occ.   25  a   ---  Virt.   27  a       -0.98198
     Occ.   25  a   ---  Virt.   44  a        0.06072
     Occ.   25  a   ---  Virt.   55  a        0.05357
  ----------------------------------------------------------------------------
  Root   2 triplet a              0.142689873 a.u.                3.8828 eV 
  ----------------------------------------------------------------------------
     Transition Moments                    Spin forbidden
     Oscillator Strength                   Spin forbidden

     Occ.   20  a   ---  Virt.   45  a        0.06875
     Occ.   23  a   ---  Virt.   30  a        0.13139
     Occ.   23  a   ---  Virt.   37  a       -0.06567
     Occ.   23  a   ---  Virt.   45  a       -0.07317
     Occ.   24  a   ---  Virt.   27  a       -0.39087
     Occ.   25  a   ---  Virt.   30  a       -0.88543
     Occ.   25  a   ---  Virt.   45  a       -0.07609
     Occ.   25  a   ---  Virt.   47  a       -0.08706
  ----------------------------------------------------------------------------
  Root   3 triplet a              0.169234217 a.u.                4.6051 eV 
  ----------------------------------------------------------------------------
     Transition Moments                    Spin forbidden
     Oscillator Strength                   Spin forbidden

     Occ.   24  a   ---  Virt.   27  a        0.89945
     Occ.   24  a   ---  Virt.   44  a       -0.08180
     Occ.   24  a   ---  Virt.   55  a       -0.05588
     Occ.   25  a   ---  Virt.   30  a       -0.40942
  ----------------------------------------------------------------------------
  Root   4 triplet a              0.188083264 a.u.                5.1180 eV 
  ----------------------------------------------------------------------------
     Transition Moments                    Spin forbidden
     Oscillator Strength                   Spin forbidden

     Occ.   23  a   ---  Virt.   26  a       -0.16219
     Occ.   23  a   ---  Virt.   28  a       -0.13666
     Occ.   23  a   ---  Virt.   31  a       -0.05030
     Occ.   24  a   ---  Virt.   29  a        0.05309
     Occ.   25  a   ---  Virt.   26  a       -0.88771
     Occ.   25  a   ---  Virt.   28  a       -0.32794
     Occ.   25  a   ---  Virt.   31  a       -0.10780
     Occ.   25  a   ---  Virt.   40  a       -0.09497
     Occ.   25  a   ---  Virt.   46  a       -0.09630
     Occ.   25  a   ---  Virt.   49  a        0.08339
  ----------------------------------------------------------------------------
  Root   5 triplet a              0.203265532 a.u.                5.5311 eV 
  ----------------------------------------------------------------------------
     Transition Moments                    Spin forbidden
     Oscillator Strength                   Spin forbidden

     Occ.   20  a   ---  Virt.   27  a       -0.05016
     Occ.   23  a   ---  Virt.   27  a        0.07987
     Occ.   24  a   ---  Virt.   30  a       -0.98299
     Occ.   24  a   ---  Virt.   37  a        0.10550
     Occ.   24  a   ---  Virt.   47  a       -0.05155
     Occ.   24  a   ---  Virt.   60  a       -0.05094
     Occ.   25  a   ---  Virt.   27  a        0.05981
  ----------------------------------------------------------------------------
  Root   6 triplet a              0.219127559 a.u.                5.9628 eV 
  ----------------------------------------------------------------------------
     Transition Moments                    Spin forbidden
     Oscillator Strength                   Spin forbidden

     Occ.   23  a   ---  Virt.   26  a       -0.14880
     Occ.   23  a   ---  Virt.   31  a       -0.09439
     Occ.   25  a   ---  Virt.   26  a        0.35963
     Occ.   25  a   ---  Virt.   28  a       -0.84870
     Occ.   25  a   ---  Virt.   31  a       -0.18055
     Occ.   25  a   ---  Virt.   33  a        0.17925
     Occ.   25  a   ---  Virt.   34  a        0.09568
     Occ.   25  a   ---  Virt.   43  a        0.09578
     Occ.   25  a   ---  Virt.   46  a        0.10783
     Occ.   25  a   ---  Virt.   49  a        0.07493
  ----------------------------------------------------------------------------
  Root   7 triplet a              0.221916396 a.u.                6.0387 eV 
  ----------------------------------------------------------------------------
     Transition Moments                    Spin forbidden
     Oscillator Strength                   Spin forbidden

     Occ.   23  a   ---  Virt.   29  a       -0.07918
     Occ.   23  a   ---  Virt.   32  a        0.10188
     Occ.   23  a   ---  Virt.   35  a       -0.06991
     Occ.   24  a   ---  Virt.   26  a        0.18991
     Occ.   24  a   ---  Virt.   31  a       -0.06067
     Occ.   25  a   ---  Virt.   29  a       -0.88128
     Occ.   25  a   ---  Virt.   32  a        0.33020
     Occ.   25  a   ---  Virt.   35  a       -0.15443
     Occ.   25  a   ---  Virt.   50  a        0.11145
     Occ.   25  a   ---  Virt.   53  a        0.06553
     Occ.   25  a   ---  Virt.   58  a        0.05981
  ----------------------------------------------------------------------------
  Root   8 triplet a              0.246069554 a.u.                6.6959 eV 
  ----------------------------------------------------------------------------
     Transition Moments                    Spin forbidden
     Oscillator Strength                   Spin forbidden

     Occ.   23  a   ---  Virt.   36  a       -0.07846
     Occ.   24  a   ---  Virt.   29  a       -0.09300
     Occ.   25  a   ---  Virt.   26  a        0.07216
     Occ.   25  a   ---  Virt.   28  a       -0.12011
     Occ.   25  a   ---  Virt.   31  a       -0.11272
     Occ.   25  a   ---  Virt.   33  a       -0.93124
     Occ.   25  a   ---  Virt.   34  a        0.14035
     Occ.   25  a   ---  Virt.   40  a        0.08807
     Occ.   25  a   ---  Virt.   43  a        0.06937
     Occ.   25  a   ---  Virt.   51  a        0.10795
     Occ.   25  a   ---  Virt.   52  a       -0.14605

              Target root =      1
          Target symmetry = none
      Ground state energy =   -287.444022578355
        Excitation energy =      0.141436900513
     Excited state energy =   -287.302585677841

  stored tddft:energy   -287.30258567784142     

 Task  times  cpu:     3127.3s     wall:     3783.7s


                                NWChem Input Module
                                -------------------


 Summary of allocated global arrays
-----------------------------------
  No active global arrays


MA_summarize_allocated_blocks: starting scan ...
heap block 'gridpts', handle 99, address 0x12dd4b00:
	type of elements:		double precision
	number of elements:		5242765082
	address of client space:	0x12dd4b80
	index for client space:		11404487
	total number of bytes:		41942120792
MA_summarize_allocated_blocks: scan completed: 1 heap block, 0 stack blocks
MA usage statistics:

	allocation statistics:
					      heap	     stack
					      ----	     -----
	current number of blocks	         1	         0
	maximum number of blocks	        18	        53
	current total bytes		41942120792	         0
	maximum total bytes		41943809120	  41203800
	maximum total K-bytes		  41943810	     41204
	maximum total M-bytes		     41944	        42


                                     CITATION
                                     --------
                Please cite the following reference when publishing
                           results obtained with NWChem:

          E. Apra, E. J. Bylaska, W. A. de Jong, N. Govind, K. Kowalski,
       T. P. Straatsma, M. Valiev, H. J. J. van Dam, Y. Alexeev, J. Anchell,
       V. Anisimov, F. W. Aquino, R. Atta-Fynn, J. Autschbach, N. P. Bauman,
     J. C. Becca, D. E. Bernholdt, K. Bhaskaran-Nair, S. Bogatko, P. Borowski,
         J. Boschen, J. Brabec, A. Bruner, E. Cauet, Y. Chen, G. N. Chuev,
      C. J. Cramer, J. Daily, M. J. O. Deegan, T. H. Dunning Jr., M. Dupuis,
   K. G. Dyall, G. I. Fann, S. A. Fischer, A. Fonari, H. Fruchtl, L. Gagliardi,
      J. Garza, N. Gawande, S. Ghosh, K. Glaesemann, A. W. Gotz, J. Hammond,
       V. Helms, E. D. Hermes, K. Hirao, S. Hirata, M. Jacquelin, L. Jensen,
   B. G. Johnson, H. Jonsson, R. A. Kendall, M. Klemm, R. Kobayashi, V. Konkov,
      S. Krishnamoorthy, M. Krishnan, Z. Lin, R. D. Lins, R. J. Littlefield,
      A. J. Logsdail, K. Lopata, W. Ma, A. V. Marenich, J. Martin del Campo,
   D. Mejia-Rodriguez, J. E. Moore, J. M. Mullin, T. Nakajima, D. R. Nascimento,
    J. A. Nichols, P. J. Nichols, J. Nieplocha, A. Otero-de-la-Roza, B. Palmer,
    A. Panyala, T. Pirojsirikul, B. Peng, R. Peverati, J. Pittner, L. Pollack,
   R. M. Richard, P. Sadayappan, G. C. Schatz, W. A. Shelton, D. W. Silverstein,
   D. M. A. Smith, T. A. Soares, D. Song, M. Swart, H. L. Taylor, G. S. Thomas,
            V. Tipparaju, D. G. Truhlar, K. Tsemekhman, T. Van Voorhis,
      A. Vazquez-Mayagoitia, P. Verma, O. Villa, A. Vishnu, K. D. Vogiatzis,
        D. Wang, J. H. Weare, M. J. Williamson, T. L. Windus, K. Wolinski,
        A. T. Wong, Q. Wu, C. Yang, Q. Yu, M. Zacharias, Z. Zhang, Y. Zhao,
                                and R. J. Harrison
                        "NWChem: Past, present, and future
                         J. Chem. Phys. 152, 184102 (2020)
                               doi:10.1063/5.0004997

                                      AUTHORS
                                      -------
  E. Apra, E. J. Bylaska, N. Govind, K. Kowalski, M. Valiev, D. Mejia-Rodriguez,
       A. Kunitsa, N. P. Bauman, A. Panyala, W. A. de Jong, T. P. Straatsma,
   H. J. J. van Dam, D. Wang, T. L. Windus, J. Hammond, J. Autschbach, A. Woods,
    K. Bhaskaran-Nair, J. Brabec, K. Lopata, S. A. Fischer, S. Krishnamoorthy,
     M. Jacquelin, W. Ma, M. Klemm, O. Villa, Y. Chen, V. Anisimov, F. Aquino,
     S. Hirata, M. T. Hackler, E. Hermes, L. Jensen, J. E. Moore, J. C. Becca,
      V. Konjkov, T. Risthaus, M. Malagoli, A. Marenich, A. Otero-de-la-Roza,
        J. Mullin, P. Nichols, R. Peverati, J. Pittner, Y. Zhao, P.-D. Fan,
        A. Fonari, M. J. Williamson, R. J. Harrison, J. R. Rehr, M. Dupuis,
     D. Silverstein, D. M. A. Smith, J. Nieplocha, V. Tipparaju, M. Krishnan,
     B. E. Van Kuiken, A. Vazquez-Mayagoitia, M. Swart, Q. Wu, T. Van Voorhis,
     A. A. Auer, M. Nooijen, L. D. Crosby, E. Brown, G. Cisneros, G. I. Fann,
   H. Fruchtl, J. Garza, K. Hirao, R. A. Kendall, J. A. Nichols, K. Tsemekhman,
    K. Wolinski, J. Anchell, D. E. Bernholdt, P. Borowski, T. Clark, D. Clerc,
   H. Dachsel, M. J. O. Deegan, K. Dyall, D. Elwood, E. Glendening, M. Gutowski,
   A. C. Hess, J. Jaffe, B. G. Johnson, J. Ju, R. Kobayashi, R. Kutteh, Z. Lin,
   R. Littlefield, X. Long, B. Meng, T. Nakajima, S. Niu, L. Pollack, M. Rosing,
   K. Glaesemann, G. Sandrone, M. Stave, H. Taylor, G. Thomas, J. H. van Lenthe,
                               A. T. Wong, Z. Zhang.

 Total times  cpu:     3127.3s     wall:     3784.2s
