 argument  1 = /home/aditisingh4812/nw_chem/nwchem-run/nwchem-run/tddft/closed/lcwpbe/geom-MOL/azulene.nw
                                         
                                         


             Northwest Computational Chemistry Package (NWChem) 7.2.3
             --------------------------------------------------------


                    Environmental Molecular Sciences Laboratory
                       Pacific Northwest National Laboratory
                                Richland, WA 99352

                              Copyright (c) 1994-2022
                       Pacific Northwest National Laboratory
                            Battelle Memorial Institute

             NWChem is an open-source computational chemistry package
                        distributed under the terms of the
                      Educational Community License (ECL) 2.0
             A copy of the license is included with this distribution
                              in the LICENSE.TXT file

                                  ACKNOWLEDGMENT
                                  --------------

            This software and its documentation were developed at the
            EMSL at Pacific Northwest National Laboratory, a multiprogram
            national laboratory, operated for the U.S. Department of Energy
            by Battelle under Contract Number DE-AC05-76RL01830. Support
            for this work was provided by the Department of Energy Office
            of Biological and Environmental Research, Office of Basic
            Energy Sciences, and the Office of Advanced Scientific Computing.


           Job information
           ---------------

    hostname        = p20
    program         = /home/aditisingh4812/nw_chem/nwchem-7.2.3-release.revision-d690e065-srconly.2024-08-27/nwchem-7.2.3/bin/LINUX64/nwchem
    date            = Mon Apr  7 22:41:12 2025

    compiled        = Mon_Apr_07_18:51:54_2025
    source          = /home/aditisingh4812/nw_chem/nwchem-7.2.3-release.revision-d690e065-srconly.2024-08-27/nwchem-7.2.3
    nwchem branch   = 7.2.3
    nwchem revision = d690e065
    ga revision     = 5.8.0
    use scalapack   = F
    input           = /home/aditisingh4812/nw_chem/nwchem-run/nwchem-run/tddft/closed/lcwpbe/geom-MOL/azulene.nw
    prefix          = azulene.
    data base       = ./azulene.db
    status          = startup
    nproc           =       48
    time left       =     -1s



           Memory information
           ------------------

    heap     = ********** doubles = 100000.0 Mbytes
    stack    = ********** doubles = 100000.0 Mbytes
    global   = ********** doubles = 100000.0 Mbytes (distinct from heap & stack)
    total    = ********** doubles = 300000.0 Mbytes
    verify   = yes
    hardfail = no 


           Directory information
           ---------------------

  0 permanent = .
  0 scratch   = .




                                NWChem Input Module
                                -------------------



 Scaling coordinates for geometry "geometry" by  1.889725989
 (inverse scale =  0.529177249)



                             Geometry "geometry" -> ""
                             -------------------------

 Output coordinates in angstroms (scale by  1.889725989 to convert to a.u.)

  No.       Tag          Charge          X              Y              Z
 ---- ---------------- ---------- -------------- -------------- --------------
    1 C                    6.0000     0.00000000     0.00000000     2.69939300
    2 C                    6.0000     1.14725300     0.00000000     1.89190800
    3 C                    6.0000    -1.14725300     0.00000000     1.89190800
    4 C                    6.0000     0.74381500     0.00000000     0.55061500
    5 C                    6.0000    -0.74381500     0.00000000     0.55061500
    6 C                    6.0000     0.00000000     0.00000000    -2.49360400
    7 C                    6.0000     1.26255100     0.00000000    -1.90266000
    8 C                    6.0000    -1.26255100     0.00000000    -1.90266000
    9 C                    6.0000     1.58837000     0.00000000    -0.54778100
   10 C                    6.0000    -1.58837000     0.00000000    -0.54778100
   11 H                    1.0000     0.00000000     0.00000000     3.77578100
   12 H                    1.0000     2.16780600     0.00000000     2.23284600
   13 H                    1.0000    -2.16780600     0.00000000     2.23284600
   14 H                    1.0000     0.00000000     0.00000000    -3.57476700
   15 H                    1.0000     2.09826700     0.00000000    -2.58668800
   16 H                    1.0000    -2.09826700     0.00000000    -2.58668800
   17 H                    1.0000     2.64613600     0.00000000    -0.31652400
   18 H                    1.0000    -2.64613600     0.00000000    -0.31652400

      Atomic Mass 
      ----------- 

      C                 12.000000
      H                  1.007825


 Effective nuclear repulsion energy (a.u.)     455.2876139739

            Nuclear Dipole moment (a.u.) 
            ----------------------------
        X                 Y               Z
 ---------------- ---------------- ----------------
     0.0000000000     0.0000000000    -0.0000000000


            XYZ format geometry
            -------------------
    18
 geometry
 C                     0.00000000     0.00000000     2.69939300
 C                     1.14725300     0.00000000     1.89190800
 C                    -1.14725300     0.00000000     1.89190800
 C                     0.74381500     0.00000000     0.55061500
 C                    -0.74381500     0.00000000     0.55061500
 C                     0.00000000     0.00000000    -2.49360400
 C                     1.26255100     0.00000000    -1.90266000
 C                    -1.26255100     0.00000000    -1.90266000
 C                     1.58837000     0.00000000    -0.54778100
 C                    -1.58837000     0.00000000    -0.54778100
 H                     0.00000000     0.00000000     3.77578100
 H                     2.16780600     0.00000000     2.23284600
 H                    -2.16780600     0.00000000     2.23284600
 H                     0.00000000     0.00000000    -3.57476700
 H                     2.09826700     0.00000000    -2.58668800
 H                    -2.09826700     0.00000000    -2.58668800
 H                     2.64613600     0.00000000    -0.31652400
 H                    -2.64613600     0.00000000    -0.31652400

 ==============================================================================
                                internuclear distances
 ------------------------------------------------------------------------------
       center one      |      center two      | atomic units |  angstroms
 ------------------------------------------------------------------------------
    2 C                |   1 C                |     2.65116  |     1.40293
    3 C                |   1 C                |     2.65116  |     1.40293
    4 C                |   2 C                |     2.64685  |     1.40065
    5 C                |   3 C                |     2.64685  |     1.40065
    5 C                |   4 C                |     2.81121  |     1.48763
    7 C                |   6 C                |     2.63429  |     1.39400
    8 C                |   6 C                |     2.63429  |     1.39400
    9 C                |   4 C                |     2.61831  |     1.38555
    9 C                |   7 C                |     2.63334  |     1.39350
   10 C                |   5 C                |     2.61831  |     1.38555
   10 C                |   8 C                |     2.63334  |     1.39350
   11 H                |   1 C                |     2.03408  |     1.07639
   12 H                |   2 C                |     2.03334  |     1.07600
   13 H                |   3 C                |     2.03334  |     1.07600
   14 H                |   6 C                |     2.04310  |     1.08116
   15 H                |   7 C                |     2.04083  |     1.07996
   16 H                |   8 C                |     2.04083  |     1.07996
   17 H                |   9 C                |     2.04610  |     1.08275
   18 H                |  10 C                |     2.04610  |     1.08275
 ------------------------------------------------------------------------------
                         number of included internuclear distances:         19
 ==============================================================================



 ==============================================================================
                                 internuclear angles
 ------------------------------------------------------------------------------
        center 1       |       center 2       |       center 3       |  degrees
 ------------------------------------------------------------------------------
    2 C                |   1 C                |   3 C                |   109.72
    2 C                |   1 C                |  11 H                |   125.14
    3 C                |   1 C                |  11 H                |   125.14
    1 C                |   2 C                |   4 C                |   108.40
    1 C                |   2 C                |  12 H                |   126.39
    4 C                |   2 C                |  12 H                |   125.21
    1 C                |   3 C                |   5 C                |   108.40
    1 C                |   3 C                |  13 H                |   126.39
    5 C                |   3 C                |  13 H                |   125.21
    2 C                |   4 C                |   5 C                |   106.74
    2 C                |   4 C                |   9 C                |   125.70
    5 C                |   4 C                |   9 C                |   127.56
    3 C                |   5 C                |   4 C                |   106.74
    3 C                |   5 C                |  10 C                |   125.70
    4 C                |   5 C                |  10 C                |   127.56
    7 C                |   6 C                |   8 C                |   129.84
    7 C                |   6 C                |  14 H                |   115.08
    8 C                |   6 C                |  14 H                |   115.08
    6 C                |   7 C                |   9 C                |   128.60
    6 C                |   7 C                |  15 H                |   115.62
    9 C                |   7 C                |  15 H                |   115.78
    6 C                |   8 C                |  10 C                |   128.60
    6 C                |   8 C                |  16 H                |   115.62
   10 C                |   8 C                |  16 H                |   115.78
    4 C                |   9 C                |   7 C                |   128.92
    4 C                |   9 C                |  17 H                |   115.22
    7 C                |   9 C                |  17 H                |   115.85
    5 C                |  10 C                |   8 C                |   128.92
    5 C                |  10 C                |  18 H                |   115.22
    8 C                |  10 C                |  18 H                |   115.85
 ------------------------------------------------------------------------------
                            number of included internuclear angles:         30
 ==============================================================================





 Summary of "ao basis" -> "" (cartesian)
 ------------------------------------------------------------------------------
       Tag                 Description            Shells   Functions and Types
 ---------------- ------------------------------  ------  ---------------------
 *                         def2-TZVPD                 on all atoms 


  pbe96 is a nonlocal functional; adding pw91lda local functional. 

                                 NWChem DFT Module
                                 -----------------


                      Basis "ao basis" -> "ao basis" (cartesian)
                      -----
  C (Carbon)
  ----------
            Exponent  Coefficients 
       -------------- ---------------------------------------------------------
  1 S  1.35753497E+04  0.000222
  1 S  2.03523337E+03  0.001723
  1 S  4.63225624E+02  0.008926
  1 S  1.31200196E+02  0.035728
  1 S  4.28530159E+01  0.110763
  1 S  1.55841858E+01  0.242956

  2 S  6.20671385E+00  0.414403
  2 S  2.57648965E+00  0.237450

  3 S  5.76963394E-01  1.000000

  4 S  2.29728314E-01  1.000000

  5 S  9.51644400E-02  1.000000

  6 S  4.84754014E-02  1.000000

  7 P  3.46972322E+01  0.005333
  7 P  7.95826228E+00  0.035864
  7 P  2.37808269E+00  0.142159
  7 P  8.14332082E-01  0.342705

  8 P  2.88875473E-01  1.000000

  9 P  1.00568237E-01  1.000000

 10 D  1.09700000E+00  1.000000

 11 D  3.18000000E-01  1.000000

 12 D  9.09853364E-02  1.000000

 13 F  7.61000000E-01  1.000000

  H (Hydrogen)
  ------------
            Exponent  Coefficients 
       -------------- ---------------------------------------------------------
  1 S  3.40613410E+01  0.006025
  1 S  5.12357460E+00  0.045021
  1 S  1.16466260E+00  0.201897

  2 S  3.27230410E-01  1.000000

  3 S  1.03072410E-01  1.000000

  4 P  8.00000000E-01  1.000000

  5 P  9.57741296E-02  1.000000



 Summary of "ao basis" -> "ao basis" (cartesian)
 ------------------------------------------------------------------------------
       Tag                 Description            Shells   Functions and Types
 ---------------- ------------------------------  ------  ---------------------
 C                         def2-TZVPD               13       43   6s3p3d1f
 H                         def2-TZVPD                5        9   3s2p




 Summary of "ao basis" -> "ao basis" (cartesian)
 ------------------------------------------------------------------------------
       Tag                 Description            Shells   Functions and Types
 ---------------- ------------------------------  ------  ---------------------
 C                         def2-TZVPD               13       43   6s3p3d1f
 H                         def2-TZVPD                5        9   3s2p


  int_init: cando_txs set to always be  F
  Caching 1-el integrals 

            General Information
            -------------------
          SCF calculation type: DFT
          Wavefunction type:  closed shell.
          No. of atoms     :    18
          No. of electrons :    68
           Alpha electrons :    34
            Beta electrons :    34
          Charge           :     0
          Spin multiplicity:     1
          Use of symmetry is: off; symmetry adaption is: off
          Maximum number of iterations:  50
          AO basis - number of functions:   502
                     number of shells:   170
          Convergence on energy requested:  1.00D-06
          Convergence on density requested:  1.00D-05
          Convergence on gradient requested:  5.00D-04

              XC Information
              --------------
                     Hartree-Fock (Exact) Exchange  1.000          
                     LC-wPBE(h)Exchange Functional  1.000          
            Perdew 1991 LDA Correlation Functional  1.000 local    
           PerdewBurkeErnz. Correlation Functional  1.000 non-local

           Range-Separation Parameters        
           ---------------------------
           Alpha           :  0.00
           Beta            :  1.00
           Gamma           :  0.27
           Short-Range HF  :     F

             Grid Information
             ----------------
          Grid used for XC integration:  xfine     
          Radial quadrature: Mura-Knowles        
          Angular quadrature: Lebedev. 
          Tag              B.-S. Rad. Rad. Pts. Rad. Cut. Ang. Pts.
          ---              ---------- --------- --------- ---------
          C                   0.70      100          16.0      1454
          H                   0.35      100          17.0      1202
          Grid pruning is: on 
          Number of quadrature shells:  1800
          Spatial weights used:  Erf1

          Convergence Information
          -----------------------
          Convergence aids based upon iterative change in 
          total energy or number of iterations. 
          Levelshifting, if invoked, occurs when the 
          HOMO/LUMO gap drops below (HL_TOL):  1.00D-02
          DIIS, if invoked, will attempt to extrapolate 
          using up to (NFOCK): 10 stored Fock matrices.

                    Damping( 0%)  Levelshifting(0.5)       DIIS
                  --------------- ------------------- ---------------
          dE  on:    start            ASAP                start   
          dE off:    2 iters         50 iters            50 iters 


      Screening Tolerance Information
      -------------------------------
          Density screening/tol_rho:  1.00D-10
          AO Gaussian exp screening on grid/accAOfunc:  14
          CD Gaussian exp screening on grid/accCDfunc:  20
          XC Gaussian exp screening on grid/accXCfunc:  20
          Schwarz screening/accCoul:  1.00D-08

  
  CAM type calculations without CDFIT are
  only available with the direct option.
  Forcing Direct SCF
  

 WARNING : Found    18 linear dependencies 
 S eigenvalue threshold:     1.00000E-05
 Smallest S eigenvalue :     6.95624E-08
 Largest  S eigenvalue :     7.91386E-06


 !! The overlap matrix has  18 vectors deemed linearly dependent with
    eigenvalues:
 6.96D-08 7.41D-08 2.89D-07 4.14D-07 4.89D-07 9.27D-07 1.18D-06 1.23D-06
 1.35D-06 1.80D-06 2.44D-06 2.57D-06 2.94D-06 3.41D-06 3.50D-06 5.32D-06
 6.41D-06 7.91D-06


      Superposition of Atomic Density Guess
      -------------------------------------

 Sum of atomic energies:        -380.71178088

      Non-variational initial energy
      ------------------------------

 Total energy =    -388.193544
 1-e energy   =   -1412.469564
 2-e energy   =     568.988406
 HOMO         =      -0.232557
 LUMO         =      -0.099274

  WARNING: movecs_in_org=atomic not equal to movecs_in=./azulene.movecs
   Time after variat. SCF:     35.1
   Time prior to 1st pass:     35.1

 Grid_pts file          = ./azulene.gridpts.00
 Record size in doubles =  12289        No. of grid_pts per rec  =   3070
 Max. records in memory =     21        Max. recs in file   =  21109390

 Grid integrated density:      67.944459028781
 Requested integration accuracy:   0.10E-07

           Memory utilization after 1st SCF pass: 
           Heap Space remaining (MW):     7864.18          7864179322
          Stack Space remaining (MW):    13107.20         13107197004

   convergence    iter        energy       DeltaE   RMS-Dens  Diis-err    time
 ---------------- ----- ----------------- --------- --------- ---------  ------
 d= 0,ls=0.0,diis     1   -382.8893487723 -8.38D+02  1.98D+02  1.06D+04   110.5
 Grid integrated density:      67.999991008932
 Requested integration accuracy:   0.10E-07
 d= 0,ls=0.5,diis     2   -356.5863155104  2.63D+01  8.97D+01  2.01D+02   195.5
 Grid integrated density:      68.000005651274
 Requested integration accuracy:   0.10E-07
 d= 0,ls=0.5,diis     3   -369.3328089513 -1.27D+01  1.58D+02  5.79D+01   290.7
 d= 0,ls=0.5,diis     4   -380.7157977067 -1.14D+01  9.25D+01  2.05D+01   385.1
 Grid integrated density:      68.000001034129
 Requested integration accuracy:   0.10E-07
 d= 0,ls=0.5,diis     5   -384.6218416277 -3.91D+00  1.05D-01  5.75D+00   461.6
 Grid integrated density:      68.000001241117
 Requested integration accuracy:   0.10E-07
 d= 0,ls=0.5,diis     6   -385.3509663463 -7.29D-01  2.74D-02  9.85D-01   536.9
 Grid integrated density:      68.000000997150
 Requested integration accuracy:   0.10E-07
 d= 0,ls=0.5,diis     7   -385.5123489870 -1.61D-01  7.93D-03  1.81D-01   621.9
 Grid integrated density:      68.000000962983
 Requested integration accuracy:   0.10E-07
  Resetting Diis
 d= 0,ls=0.5,diis     8   -385.5609073199 -4.86D-02  2.25D-03  3.60D-02   697.5
 d= 0,ls=0.5,diis     9   -385.5760520067 -1.51D-02  1.27D-03  1.27D-02   773.7
 d= 0,ls=0.5,diis    10   -385.5816784580 -5.63D-03  6.56D-04  6.45D-03   876.5
 d= 0,ls=0.5,diis    11   -385.5849965216 -3.32D-03  2.84D-04  3.51D-03   952.9
 d= 0,ls=0.5,diis    12   -385.5865466926 -1.55D-03  1.13D-04  1.30D-03  1029.2
 d= 0,ls=0.5,diis    13   -385.5871674487 -6.21D-04  7.51D-05  5.03D-04  1105.5
 d= 0,ls=0.5,diis    14   -385.5874085799 -2.41D-04  4.25D-05  1.98D-04  1182.3
 d= 0,ls=0.5,diis    15   -385.5875007964 -9.22D-05  2.27D-05  8.31D-05  1287.6
 d= 0,ls=0.5,diis    16   -385.5875378472 -3.71D-05  1.33D-05  3.59D-05  1364.0
 d= 0,ls=0.5,diis    17   -385.5875534213 -1.56D-05  7.86D-06  1.62D-05  1440.6
 d= 0,ls=0.5,diis    18   -385.5875602035 -6.78D-06  5.00D-06  7.44D-06  1517.6
 d= 0,ls=0.5,diis    19   -385.5875631972 -2.99D-06  3.23D-06  3.47D-06  1621.8
 d= 0,ls=0.5,diis    20   -385.5875645313 -1.33D-06  2.16D-06  1.60D-06  1698.3
 d= 0,ls=0.5,diis    21   -385.5875651086 -5.77D-07  1.36D-06  7.87D-07  1774.6


         Total DFT energy =     -385.587565352004
      One electron energy =    -1421.460939002060
           Coulomb energy =      637.466343340639
    Exchange-Corr. energy =      -56.880583664491
 Nuclear repulsion energy =      455.287613973908

 Numeric. integr. density =       67.999999928919

     Total iterative time =   1817.1s



                       DFT Final Molecular Orbital Analysis
                       ------------------------------------

 Vector    1  Occ=2.000000D+00  E=-1.006409D+01
              MO Center= -1.6D+00, -1.7D-12, -5.5D-01, r^2= 1.3D-01
   Bfn.  Coefficient  Atom+Function         Bfn.  Coefficient  Atom+Function  
  ----- ------------  ---------------      ----- ------------  ---------------
   389      0.596391  10 C  s               388      0.465669  10 C  s         
   390      0.102068  10 C  s               391     -0.100618  10 C  s         
   346     -0.059126   9 C  s               345     -0.046168   9 C  s         

 Vector    2  Occ=2.000000D+00  E=-1.006408D+01
              MO Center=  1.6D+00, -2.3D-12, -5.5D-01, r^2= 1.3D-01
   Bfn.  Coefficient  Atom+Function         Bfn.  Coefficient  Atom+Function  
  ----- ------------  ---------------      ----- ------------  ---------------
   346      0.596392   9 C  s               345      0.465669   9 C  s         
   347      0.102075   9 C  s               348     -0.100700   9 C  s         
   389      0.059129  10 C  s               388      0.046167  10 C  s         

 Vector    3  Occ=2.000000D+00  E=-1.006229D+01
              MO Center= -2.7D-06, -2.4D-12, -2.5D+00, r^2= 2.9D-02
   Bfn.  Coefficient  Atom+Function         Bfn.  Coefficient  Atom+Function  
  ----- ------------  ---------------      ----- ------------  ---------------
   217      0.599260   6 C  s               216      0.467908   6 C  s         
   218      0.102665   6 C  s               219     -0.102006   6 C  s         

 Vector    4  Occ=2.000000D+00  E=-1.005155D+01
              MO Center= -1.2D+00, -2.1D-12, -1.9D+00, r^2= 2.1D-01
   Bfn.  Coefficient  Atom+Function         Bfn.  Coefficient  Atom+Function  
  ----- ------------  ---------------      ----- ------------  ---------------
   303      0.590685   8 C  s               302      0.461244   8 C  s         
   260     -0.101164   7 C  s               304      0.101260   8 C  s         
   305     -0.100501   8 C  s               259     -0.078994   7 C  s         

 Vector    5  Occ=2.000000D+00  E=-1.005151D+01
              MO Center=  1.2D+00, -5.0D-12, -1.9D+00, r^2= 2.1D-01
   Bfn.  Coefficient  Atom+Function         Bfn.  Coefficient  Atom+Function  
  ----- ------------  ---------------      ----- ------------  ---------------
   260      0.590650   7 C  s               259      0.461217   7 C  s         
   261      0.101273   7 C  s               262     -0.100597   7 C  s         
   303      0.100954   8 C  s               302      0.078832   8 C  s         

 Vector    6  Occ=2.000000D+00  E=-1.004996D+01
              MO Center= -1.6D-01,  3.5D-13,  5.5D-01, r^2= 5.5D-01
   Bfn.  Coefficient  Atom+Function         Bfn.  Coefficient  Atom+Function  
  ----- ------------  ---------------      ----- ------------  ---------------
   174      0.468379   5 C  s               131      0.373924   4 C  s         
   173      0.365734   5 C  s               130      0.291980   4 C  s         
   175      0.080055   5 C  s               176     -0.079087   5 C  s         
   132      0.064055   4 C  s               133     -0.062954   4 C  s         

 Vector    7  Occ=2.000000D+00  E=-1.004979D+01
              MO Center=  1.6D-01, -1.7D-12,  5.5D-01, r^2= 5.5D-01
   Bfn.  Coefficient  Atom+Function         Bfn.  Coefficient  Atom+Function  
  ----- ------------  ---------------      ----- ------------  ---------------
   131      0.468424   4 C  s               174     -0.373979   5 C  s         
   130      0.365760   4 C  s               173     -0.292013   5 C  s         
   133     -0.079908   4 C  s               132      0.079425   4 C  s         
   176      0.063982   5 C  s               175     -0.063266   5 C  s         

 Vector    8  Occ=2.000000D+00  E=-1.003673D+01
              MO Center=  4.1D-08, -3.2D-12,  2.7D+00, r^2= 2.9D-02
   Bfn.  Coefficient  Atom+Function         Bfn.  Coefficient  Atom+Function  
  ----- ------------  ---------------      ----- ------------  ---------------
     2      0.599368   1 C  s                 1      0.467987   1 C  s         
     3      0.102861   1 C  s                 4     -0.101972   1 C  s         

 Vector    9  Occ=2.000000D+00  E=-1.002342D+01
              MO Center=  6.2D-02,  8.9D-11,  1.9D+00, r^2= 1.3D+00
   Bfn.  Coefficient  Atom+Function         Bfn.  Coefficient  Atom+Function  
  ----- ------------  ---------------      ----- ------------  ---------------
    45      0.435187   2 C  s                88     -0.412195   3 C  s         
    44      0.339826   2 C  s                87     -0.321872   3 C  s         
    46      0.074781   2 C  s                47     -0.074132   2 C  s         
    89     -0.070832   3 C  s                90      0.070235   3 C  s         

 Vector   10  Occ=2.000000D+00  E=-1.002340D+01
              MO Center= -6.2D-02,  1.0D-10,  1.9D+00, r^2= 1.3D+00
   Bfn.  Coefficient  Atom+Function         Bfn.  Coefficient  Atom+Function  
  ----- ------------  ---------------      ----- ------------  ---------------
    88      0.435104   3 C  s                45      0.412108   2 C  s         
    87      0.339764   3 C  s                44      0.321807   2 C  s         
    89      0.074741   3 C  s                90     -0.073795   3 C  s         
    46      0.070789   2 C  s                47     -0.069877   2 C  s         

 Vector   11  Occ=2.000000D+00  E=-9.586673D-01
              MO Center= -1.6D-04, -1.1D-09,  7.1D-01, r^2= 2.9D+00
   Bfn.  Coefficient  Atom+Function         Bfn.  Coefficient  Atom+Function  
  ----- ------------  ---------------      ----- ------------  ---------------
   132      0.165067   4 C  s               133      0.164809   4 C  s         
   175      0.165093   5 C  s               176      0.164842   5 C  s         
    46      0.121678   2 C  s                89      0.121690   3 C  s         
     3      0.109601   1 C  s               131     -0.104273   4 C  s         
   174     -0.104289   5 C  s                 4      0.101588   1 C  s         

 Vector   12  Occ=2.000000D+00  E=-9.093331D-01
              MO Center= -2.4D-04, -1.3D-09, -9.0D-01, r^2= 4.7D+00
   Bfn.  Coefficient  Atom+Function         Bfn.  Coefficient  Atom+Function  
  ----- ------------  ---------------      ----- ------------  ---------------
   218      0.181120   6 C  s               219      0.169435   6 C  s         
   261      0.155021   7 C  s               304      0.155070   8 C  s         
   262      0.135312   7 C  s               305      0.135355   8 C  s         
   217     -0.114495   6 C  s                 3     -0.103865   1 C  s         
   260     -0.098104   7 C  s               303     -0.098133   8 C  s         

 Vector   13  Occ=2.000000D+00  E=-8.740077D-01
              MO Center=  1.9D-04, -7.8D-10, -6.3D-01, r^2= 3.7D+00
   Bfn.  Coefficient  Atom+Function         Bfn.  Coefficient  Atom+Function  
  ----- ------------  ---------------      ----- ------------  ---------------
   347      0.188566   9 C  s               390     -0.188554  10 C  s         
   348      0.155565   9 C  s               391     -0.155563  10 C  s         
   261      0.134360   7 C  s               304     -0.134305   8 C  s         
   262      0.127591   7 C  s               305     -0.127547   8 C  s         
   346     -0.115591   9 C  s               389      0.115582  10 C  s         

 Vector   14  Occ=2.000000D+00  E=-8.235276D-01
              MO Center=  3.0D-05, -9.1D-10, -1.2D-01, r^2= 5.4D+00
   Bfn.  Coefficient  Atom+Function         Bfn.  Coefficient  Atom+Function  
  ----- ------------  ---------------      ----- ------------  ---------------
   218      0.174498   6 C  s               219      0.174067   6 C  s         
     3      0.159315   1 C  s                 4      0.154297   1 C  s         
   348     -0.131985   9 C  s               391     -0.131962  10 C  s         
   347     -0.123804   9 C  s               390     -0.123777  10 C  s         
   217     -0.107149   6 C  s               133     -0.104052   4 C  s         

 Vector   15  Occ=2.000000D+00  E=-7.900099D-01
              MO Center= -1.2D-05, -8.0D-10,  2.1D-01, r^2= 5.2D+00
   Bfn.  Coefficient  Atom+Function         Bfn.  Coefficient  Atom+Function  
  ----- ------------  ---------------      ----- ------------  ---------------
    46      0.161836   2 C  s                89     -0.161830   3 C  s         
   261     -0.145904   7 C  s               304      0.145902   8 C  s         
    47      0.144840   2 C  s                90     -0.144838   3 C  s         
   262     -0.140485   7 C  s               305      0.140485   8 C  s         
   133      0.134802   4 C  s               176     -0.134813   5 C  s         

 Vector   16  Occ=2.000000D+00  E=-7.344685D-01
              MO Center=  1.4D-05, -8.1D-10,  9.2D-02, r^2= 6.1D+00
   Bfn.  Coefficient  Atom+Function         Bfn.  Coefficient  Atom+Function  
  ----- ------------  ---------------      ----- ------------  ---------------
     4      0.164200   1 C  s                 3      0.156416   1 C  s         
   133     -0.152919   4 C  s               176     -0.152916   5 C  s         
   219     -0.147928   6 C  s               218     -0.142919   6 C  s         
   348      0.136106   9 C  s               391      0.136120  10 C  s         
   132     -0.121885   4 C  s               175     -0.121877   5 C  s         

 Vector   17  Occ=2.000000D+00  E=-7.042985D-01
              MO Center= -4.2D-05,  3.9D-10, -2.1D-04, r^2= 6.3D+00
   Bfn.  Coefficient  Atom+Function         Bfn.  Coefficient  Atom+Function  
  ----- ------------  ---------------      ----- ------------  ---------------
    47      0.157225   2 C  s                90     -0.157236   3 C  s         
    46      0.155368   2 C  s                89     -0.155373   3 C  s         
   222      0.135397   6 C  px              262      0.129707   7 C  s         
   305     -0.129723   8 C  s               261      0.126521   7 C  s         
   304     -0.126540   8 C  s               347     -0.121606   9 C  s         

 Vector   18  Occ=2.000000D+00  E=-6.428700D-01
              MO Center= -4.8D-05, -7.3D-10,  5.6D-01, r^2= 5.5D+00
   Bfn.  Coefficient  Atom+Function         Bfn.  Coefficient  Atom+Function  
  ----- ------------  ---------------      ----- ------------  ---------------
     4      0.162820   1 C  s                47     -0.140954   2 C  s         
    90     -0.140942   3 C  s               136     -0.128996   4 C  px        
   179      0.129001   5 C  px                3      0.124110   1 C  s         
    46     -0.100213   2 C  s                89     -0.100196   3 C  s         
   351     -0.099105   9 C  px              394      0.099124  10 C  px        

 Vector   19  Occ=2.000000D+00  E=-6.364938D-01
              MO Center= -5.0D-05, -3.0D-10,  1.5D-01, r^2= 6.6D+00
   Bfn.  Coefficient  Atom+Function         Bfn.  Coefficient  Atom+Function  
  ----- ------------  ---------------      ----- ------------  ---------------
   219      0.130099   6 C  s               353      0.127942   9 C  pz        
   396      0.127960  10 C  pz              138     -0.125323   4 C  pz        
   181     -0.125334   5 C  pz                9      0.121689   1 C  pz        
   218      0.108490   6 C  s               262     -0.106734   7 C  s         
   265     -0.106377   7 C  px              305     -0.106703   8 C  s         

 Vector   20  Occ=2.000000D+00  E=-6.015567D-01
              MO Center=  4.5D-05, -4.5D-10, -3.7D-01, r^2= 5.6D+00
   Bfn.  Coefficient  Atom+Function         Bfn.  Coefficient  Atom+Function  
  ----- ------------  ---------------      ----- ------------  ---------------
   222      0.177212   6 C  px              133      0.160205   4 C  s         
   176     -0.160198   5 C  s               132      0.137128   4 C  s         
   175     -0.137121   5 C  s               267     -0.124908   7 C  pz        
   310      0.124909   8 C  pz              353      0.122210   9 C  pz        
   396     -0.122188  10 C  pz                7     -0.105587   1 C  px        

 Vector   21  Occ=2.000000D+00  E=-5.840337D-01
              MO Center= -1.6D-04, -3.5D-10, -4.7D-01, r^2= 7.7D+00
   Bfn.  Coefficient  Atom+Function         Bfn.  Coefficient  Atom+Function  
  ----- ------------  ---------------      ----- ------------  ---------------
   224      0.196210   6 C  pz              459     -0.136184  14 H  s         
     4     -0.116239   1 C  s               230      0.115936   6 C  pz        
   227      0.111161   6 C  pz               47      0.106863   2 C  s         
    90      0.106864   3 C  s                50      0.097586   2 C  px        
    93     -0.097587   3 C  px              458     -0.096842  14 H  s         

 Vector   22  Occ=2.000000D+00  E=-5.417840D-01
              MO Center= -8.8D-05, -1.9D-09, -4.9D-02, r^2= 7.6D+00
   Bfn.  Coefficient  Atom+Function         Bfn.  Coefficient  Atom+Function  
  ----- ------------  ---------------      ----- ------------  ---------------
    15      0.181735   1 C  pz                9      0.152206   1 C  pz        
    50      0.126583   2 C  px               93     -0.126588   3 C  px        
   265      0.119624   7 C  px              308     -0.119667   8 C  px        
   468      0.116826  15 H  s               477      0.116851  16 H  s         
   433     -0.101725  11 H  s                12      0.090399   1 C  pz        

 Vector   23  Occ=2.000000D+00  E=-5.400978D-01
              MO Center=  1.2D-04, -3.3D-10, -7.4D-01, r^2= 5.2D+00
   Bfn.  Coefficient  Atom+Function         Bfn.  Coefficient  Atom+Function  
  ----- ------------  ---------------      ----- ------------  ---------------
   351      0.187578   9 C  px              394      0.187579  10 C  px        
   267     -0.140232   7 C  pz              310      0.140224   8 C  pz        
   486      0.125736  17 H  s               495     -0.125737  18 H  s         
   273     -0.118133   7 C  pz              316      0.118142   8 C  pz        
   245      0.110377   6 C  dxz             354      0.108377   9 C  px        

 Vector   24  Occ=2.000000D+00  E=-4.937053D-01
              MO Center= -1.8D-04,  2.3D-09,  2.0D-01, r^2= 4.0D+00
   Bfn.  Coefficient  Atom+Function         Bfn.  Coefficient  Atom+Function  
  ----- ------------  ---------------      ----- ------------  ---------------
   137      0.168191   4 C  py              180      0.168223   5 C  py        
   140      0.140594   4 C  py              183      0.140617   5 C  py        
   352      0.130164   9 C  py              395      0.130202  10 C  py        
   355      0.113672   9 C  py              398      0.113704  10 C  py        
    51      0.113093   2 C  py               94      0.113101   3 C  py        

 Vector   25  Occ=2.000000D+00  E=-4.908473D-01
              MO Center= -6.0D-05, -3.4D-10,  2.1D-01, r^2= 5.5D+00
   Bfn.  Coefficient  Atom+Function         Bfn.  Coefficient  Atom+Function  
  ----- ------------  ---------------      ----- ------------  ---------------
   222      0.164552   6 C  px               52      0.154737   2 C  pz        
    95     -0.154768   3 C  pz              138     -0.144118   4 C  pz        
   181      0.144148   5 C  pz              353      0.127973   9 C  pz        
   396     -0.127980  10 C  pz              265     -0.124987   7 C  px        
   308     -0.124975   8 C  px              487      0.104868  17 H  s         

 Vector   26  Occ=2.000000D+00  E=-4.776779D-01
              MO Center=  8.1D-05, -1.0D-10, -2.6D-01, r^2= 8.3D+00
   Bfn.  Coefficient  Atom+Function         Bfn.  Coefficient  Atom+Function  
  ----- ------------  ---------------      ----- ------------  ---------------
   224      0.216413   6 C  pz              459     -0.173606  14 H  s         
     9      0.169827   1 C  pz              432      0.134693  11 H  s         
   227      0.132569   6 C  pz              458     -0.120175  14 H  s         
    15      0.116169   1 C  pz              230      0.115372   6 C  pz        
    52     -0.114604   2 C  pz               95     -0.114569   3 C  pz        

 Vector   27  Occ=2.000000D+00  E=-4.563950D-01
              MO Center=  2.9D-04, -2.3D-10,  1.9D+00, r^2= 3.6D+00
   Bfn.  Coefficient  Atom+Function         Bfn.  Coefficient  Atom+Function  
  ----- ------------  ---------------      ----- ------------  ---------------
     7      0.273007   1 C  px               50     -0.233000   2 C  px        
    93     -0.232921   3 C  px               13      0.177559   1 C  px        
    10      0.166826   1 C  px              441     -0.143276  12 H  s         
   450      0.143225  13 H  s                53     -0.134676   2 C  px        
    96     -0.134635   3 C  px               56     -0.132513   2 C  px        

 Vector   28  Occ=2.000000D+00  E=-4.555536D-01
              MO Center= -7.5D-04, -5.5D-10,  3.2D-01, r^2= 6.2D+00
   Bfn.  Coefficient  Atom+Function         Bfn.  Coefficient  Atom+Function  
  ----- ------------  ---------------      ----- ------------  ---------------
     9      0.193146   1 C  pz              136     -0.161288   4 C  px        
   179      0.161297   5 C  px              353     -0.138033   9 C  pz        
   396     -0.138110  10 C  pz              432      0.128169  11 H  s         
   142     -0.122773   4 C  px              185      0.122807   5 C  px        
    12      0.116810   1 C  pz               15      0.117302   1 C  pz        

 Vector   29  Occ=2.000000D+00  E=-4.395105D-01
              MO Center=  6.6D-04, -7.3D-10, -1.1D+00, r^2= 5.3D+00
   Bfn.  Coefficient  Atom+Function         Bfn.  Coefficient  Atom+Function  
  ----- ------------  ---------------      ----- ------------  ---------------
   265     -0.178713   7 C  px              308     -0.178683   8 C  px        
   222      0.172413   6 C  px              468     -0.152407  15 H  s         
   477      0.152344  16 H  s               138      0.146411   4 C  pz        
   181     -0.146345   5 C  pz              271     -0.144694   7 C  px        
   314     -0.144691   8 C  px              228      0.130096   6 C  px        

 Vector   30  Occ=2.000000D+00  E=-4.312515D-01
              MO Center= -6.9D-05,  3.2D-09, -5.3D-01, r^2= 5.9D+00
   Bfn.  Coefficient  Atom+Function         Bfn.  Coefficient  Atom+Function  
  ----- ------------  ---------------      ----- ------------  ---------------
   223      0.209415   6 C  py              226      0.177745   6 C  py        
   266      0.165133   7 C  py              309      0.165169   8 C  py        
     8     -0.146178   1 C  py              269      0.142223   7 C  py        
   312      0.142257   8 C  py               11     -0.127450   1 C  py        
    51     -0.123428   2 C  py               94     -0.123417   3 C  py        

 Vector   31  Occ=2.000000D+00  E=-4.139019D-01
              MO Center=  1.6D-04, -2.8D-10,  1.7D-01, r^2= 5.4D+00
   Bfn.  Coefficient  Atom+Function         Bfn.  Coefficient  Atom+Function  
  ----- ------------  ---------------      ----- ------------  ---------------
   136      0.192514   4 C  px              179     -0.192525   5 C  px        
   142      0.147342   4 C  px              185     -0.147338   5 C  px        
    52     -0.144889   2 C  pz               95     -0.144852   3 C  pz        
   230     -0.131206   6 C  pz              351     -0.123798   9 C  px        
   394      0.123791  10 C  px              486     -0.120340  17 H  s         

 Vector   32  Occ=2.000000D+00  E=-3.979302D-01
              MO Center=  1.9D-04,  1.9D-09, -4.9D-01, r^2= 4.0D+00
   Bfn.  Coefficient  Atom+Function         Bfn.  Coefficient  Atom+Function  
  ----- ------------  ---------------      ----- ------------  ---------------
   352      0.205757   9 C  py              395     -0.205740  10 C  py        
   355      0.172324   9 C  py              398     -0.172311  10 C  py        
   266      0.151690   7 C  py              309     -0.151655   8 C  py        
   137      0.131721   4 C  py              180     -0.131700   5 C  py        
   269      0.130264   7 C  py              312     -0.130232   8 C  py        

 Vector   33  Occ=2.000000D+00  E=-3.151559D-01
              MO Center= -3.7D-04,  1.9D-09,  5.5D-01, r^2= 5.5D+00
   Bfn.  Coefficient  Atom+Function         Bfn.  Coefficient  Atom+Function  
  ----- ------------  ---------------      ----- ------------  ---------------
     8      0.231537   1 C  py               11      0.206823   1 C  py        
   223      0.176669   6 C  py              226      0.154741   6 C  py        
   137     -0.143609   4 C  py              180     -0.143649   5 C  py        
   352     -0.124410   9 C  py              395     -0.124480  10 C  py        
   140     -0.121554   4 C  py              183     -0.121587   5 C  py        

 Vector   34  Occ=2.000000D+00  E=-2.755980D-01
              MO Center=  5.0D-04,  2.4D-09,  5.2D-01, r^2= 5.2D+00
   Bfn.  Coefficient  Atom+Function         Bfn.  Coefficient  Atom+Function  
  ----- ------------  ---------------      ----- ------------  ---------------
    51      0.220993   2 C  py               94     -0.220959   3 C  py        
    54      0.198031   2 C  py               97     -0.198003   3 C  py        
   266     -0.162478   7 C  py              309      0.162433   8 C  py        
   269     -0.145867   7 C  py              312      0.145825   8 C  py        
   137      0.136644   4 C  py              180     -0.136504   5 C  py        

 Vector   35  Occ=0.000000D+00  E=-1.979702D-02
              MO Center= -4.9D-04,  4.7D-10, -3.7D-01, r^2= 5.5D+00
   Bfn.  Coefficient  Atom+Function         Bfn.  Coefficient  Atom+Function  
  ----- ------------  ---------------      ----- ------------  ---------------
   223      0.219320   6 C  py              226      0.214916   6 C  py        
   352     -0.188091   9 C  py              395     -0.188159  10 C  py        
   355     -0.176630   9 C  py              398     -0.176692  10 C  py        
     8     -0.165363   1 C  py              137      0.157877   4 C  py        
   180      0.158009   5 C  py               11     -0.154741   1 C  py        

 Vector   36  Occ=0.000000D+00  E= 1.184056D-02
              MO Center=  3.6D-04,  1.2D-11, -3.6D-01, r^2= 6.0D+00
   Bfn.  Coefficient  Atom+Function         Bfn.  Coefficient  Atom+Function  
  ----- ------------  ---------------      ----- ------------  ---------------
   158      0.298257   4 C  dxy             201      0.298258   5 C  dxy       
   161      0.278364   4 C  dyz             204     -0.278343   5 C  dyz       
   266      0.200657   7 C  py              269      0.201434   7 C  py        
   309     -0.200632   8 C  py              312     -0.201414   8 C  py        
   376     -0.183456   9 C  dyz             419      0.183444  10 C  dyz       

 Vector   37  Occ=0.000000D+00  E= 5.283053D-02
              MO Center= -9.1D-04,  1.6D-08, -1.8D+00, r^2= 1.8D+01
   Bfn.  Coefficient  Atom+Function         Bfn.  Coefficient  Atom+Function  
  ----- ------------  ---------------      ----- ------------  ---------------
    49      3.889431   2 C  s                92      3.890591   3 C  s         
   135     -3.820954   4 C  s               178     -3.823645   5 C  s         
   350      3.023710   9 C  s               393      3.025671  10 C  s         
   442      2.255325  12 H  s               451      2.255041  13 H  s         
   221      2.135935   6 C  s               142     -1.677034   4 C  px        

 Vector   38  Occ=0.000000D+00  E= 6.729712D-02
              MO Center=  4.2D-04,  1.8D-08, -3.7D-01, r^2= 2.2D+01
   Bfn.  Coefficient  Atom+Function         Bfn.  Coefficient  Atom+Function  
  ----- ------------  ---------------      ----- ------------  ---------------
   135      9.579897   4 C  s               178     -9.579764   5 C  s         
   350     -6.236698   9 C  s               393      6.237149  10 C  s         
    49     -4.747206   2 C  s                92      4.746854   3 C  s         
   264     -1.861609   7 C  s               307      1.860951   8 C  s         
   142      1.816352   4 C  px              185      1.816318   5 C  px        

 Vector   39  Occ=0.000000D+00  E= 7.075948D-02
              MO Center= -4.2D-05,  3.8D-09,  1.3D+00, r^2= 2.4D+01
   Bfn.  Coefficient  Atom+Function         Bfn.  Coefficient  Atom+Function  
  ----- ------------  ---------------      ----- ------------  ---------------
   350      3.683206   9 C  s               393      3.682790  10 C  s         
    49      3.274634   2 C  s                92      3.274277   3 C  s         
   135     -3.270827   4 C  s               178     -3.269706   5 C  s         
     6      3.185555   1 C  s               221     -2.788013   6 C  s         
   469      2.732249  15 H  s               478      2.732059  16 H  s         

 Vector   40  Occ=0.000000D+00  E= 8.909232D-02
              MO Center=  7.8D-05, -1.6D-08,  5.3D-01, r^2= 2.6D+01
   Bfn.  Coefficient  Atom+Function         Bfn.  Coefficient  Atom+Function  
  ----- ------------  ---------------      ----- ------------  ---------------
     6      8.766324   1 C  s               221      6.694723   6 C  s         
   350     -5.183749   9 C  s               393     -5.184845  10 C  s         
    49     -4.126936   2 C  s                92     -4.127219   3 C  s         
   135      2.969385   4 C  s               178      2.970028   5 C  s         
   372      2.562307   9 C  dxx             415      2.562425  10 C  dxx       

 Vector   41  Occ=0.000000D+00  E= 9.022747D-02
              MO Center=  1.9D-05,  2.7D-10, -2.0D-01, r^2= 2.6D+01
   Bfn.  Coefficient  Atom+Function         Bfn.  Coefficient  Atom+Function  
  ----- ------------  ---------------      ----- ------------  ---------------
   135      8.384614   4 C  s               178     -8.383931   5 C  s         
   264      7.502302   7 C  s               307     -7.503382   8 C  s         
    49     -6.876035   2 C  s                92      6.875753   3 C  s         
   350     -5.127489   9 C  s               393      5.126408  10 C  s         
    73      2.118749   2 C  dxz             116      2.118749   3 C  dxz       

 Vector   42  Occ=0.000000D+00  E= 1.065850D-01
              MO Center= -1.1D-04,  1.2D-08, -1.7D-01, r^2= 1.5D+01
   Bfn.  Coefficient  Atom+Function         Bfn.  Coefficient  Atom+Function  
  ----- ------------  ---------------      ----- ------------  ---------------
   135      8.010791   4 C  s               178      8.012071   5 C  s         
   460      5.146750  14 H  s                49     -3.916139   2 C  s         
    92     -3.916076   3 C  s               469      3.795052  15 H  s         
   478      3.795778  16 H  s               433      3.563343  11 H  s         
   220     -3.485150   6 C  s                15     -3.405799   1 C  pz        

 Vector   43  Occ=0.000000D+00  E= 1.150067D-01
              MO Center=  1.3D-04, -4.2D-08, -2.1D-01, r^2= 2.7D+01
   Bfn.  Coefficient  Atom+Function         Bfn.  Coefficient  Atom+Function  
  ----- ------------  ---------------      ----- ------------  ---------------
   221     12.889074   6 C  s                 6    -11.285281   1 C  s         
    49      8.847350   2 C  s                92      8.846740   3 C  s         
   264     -8.813122   7 C  s               307     -8.811284   8 C  s         
   135     -2.414812   4 C  s               178     -2.412470   5 C  s         
   469      2.009133  15 H  s               478      2.009629  16 H  s         

 Vector   44  Occ=0.000000D+00  E= 1.197639D-01
              MO Center= -1.7D-05, -3.3D-09, -1.3D-01, r^2= 2.6D+01
   Bfn.  Coefficient  Atom+Function         Bfn.  Coefficient  Atom+Function  
  ----- ------------  ---------------      ----- ------------  ---------------
   350     12.818387   9 C  s               393    -12.818641  10 C  s         
   264     -9.666454   7 C  s               307      9.668126   8 C  s         
    49     -6.225677   2 C  s                92      6.226567   3 C  s         
   135     -3.483424   4 C  s               178      3.482874   5 C  s         
   288     -2.643389   7 C  dxz             331     -2.643304   8 C  dxz       

 Vector   45  Occ=0.000000D+00  E= 1.329945D-01
              MO Center= -2.1D-04,  5.3D-09,  1.7D+00, r^2= 6.3D+00
   Bfn.  Coefficient  Atom+Function         Bfn.  Coefficient  Atom+Function  
  ----- ------------  ---------------      ----- ------------  ---------------
    32      0.949480   1 C  dyz              57      0.652805   2 C  py        
   100      0.652921   3 C  py              358      0.519582   9 C  py        
   401      0.519855  10 C  py              143     -0.507799   4 C  py        
   186     -0.507532   5 C  py               72     -0.472903   2 C  dxy       
   115      0.472715   3 C  dxy             158     -0.461551   4 C  dxy       

 Vector   46  Occ=0.000000D+00  E= 1.491565D-01
              MO Center= -8.8D-05,  2.2D-07, -3.0D-01, r^2= 1.8D+01
   Bfn.  Coefficient  Atom+Function         Bfn.  Coefficient  Atom+Function  
  ----- ------------  ---------------      ----- ------------  ---------------
   460      9.738638  14 H  s               469      9.691353  15 H  s         
   478      9.692747  16 H  s               220     -8.755108   6 C  s         
   433     -7.315818  11 H  s               263     -6.383898   7 C  s         
   306     -6.384598   8 C  s               442     -6.000738  12 H  s         
   451     -6.000789  13 H  s               221      5.808305   6 C  s         

 Vector   47  Occ=0.000000D+00  E= 1.562688D-01
              MO Center=  1.2D-04, -5.6D-08, -8.0D-02, r^2= 2.6D+01
   Bfn.  Coefficient  Atom+Function         Bfn.  Coefficient  Atom+Function  
  ----- ------------  ---------------      ----- ------------  ---------------
   264     13.389232   7 C  s               307     13.388087   8 C  s         
   221    -11.256758   6 C  s               350     -9.946743   9 C  s         
   393     -9.944782  10 C  s                 6     -9.392933   1 C  s         
    49      9.297797   2 C  s                92      9.297408   3 C  s         
   460      7.924994  14 H  s               487      5.993056  17 H  s         

 Vector   48  Occ=0.000000D+00  E= 1.609074D-01
              MO Center=  9.4D-05, -2.2D-07, -1.7D-01, r^2= 1.7D+01
   Bfn.  Coefficient  Atom+Function         Bfn.  Coefficient  Atom+Function  
  ----- ------------  ---------------      ----- ------------  ---------------
   135     23.385708   4 C  s               178    -23.385252   5 C  s         
   487      8.987707  17 H  s               496     -8.987763  18 H  s         
   469      7.838240  15 H  s               478     -7.836478  16 H  s         
   349     -6.108307   9 C  s               392      6.107939  10 C  s         
   442      4.872639  12 H  s               451     -4.873388  13 H  s         

 Vector   49  Occ=0.000000D+00  E= 1.693943D-01
              MO Center= -1.2D-02, -4.9D-08, -6.2D-01, r^2= 9.6D+00
   Bfn.  Coefficient  Atom+Function         Bfn.  Coefficient  Atom+Function  
  ----- ------------  ---------------      ----- ------------  ---------------
   100      0.929911   3 C  py               57      0.915960   2 C  py        
    32      0.871061   1 C  dyz             333     -0.756991   8 C  dyz       
   290     -0.752103   7 C  dyz             376     -0.699979   9 C  dyz       
   247      0.676324   6 C  dyz             118     -0.670598   3 C  dyz       
   419     -0.666566  10 C  dyz              75     -0.658159   2 C  dyz       

 Vector   50  Occ=0.000000D+00  E= 1.699332D-01
              MO Center=  1.2D-02,  2.5D-07,  1.4D-01, r^2= 1.3D+01
   Bfn.  Coefficient  Atom+Function         Bfn.  Coefficient  Atom+Function  
  ----- ------------  ---------------      ----- ------------  ---------------
   158      7.113198   4 C  dxy             201      7.108683   5 C  dxy       
   376     -2.921196   9 C  dyz             419      2.929788  10 C  dyz       
   358     -2.167074   9 C  py              401      2.161810  10 C  py        
   143     -2.094553   4 C  py              186      2.097080   5 C  py        
   272     -1.961599   7 C  py              315      1.967008   8 C  py        

 Vector   51  Occ=0.000000D+00  E= 1.801039D-01
              MO Center= -8.9D-05, -3.2D-08, -3.0D+00, r^2= 8.9D+00
   Bfn.  Coefficient  Atom+Function         Bfn.  Coefficient  Atom+Function  
  ----- ------------  ---------------      ----- ------------  ---------------
   376      3.416282   9 C  dyz             419      3.416121  10 C  dyz       
   229      2.944996   6 C  py              143     -2.686958   4 C  py        
   186     -2.687345   5 C  py              287      2.329038   7 C  dxy       
   330     -2.329173   8 C  dxy             158     -2.075292   4 C  dxy       
   201      2.074459   5 C  dxy             290      1.341753   7 C  dyz       

 Vector   52  Occ=0.000000D+00  E= 1.811440D-01
              MO Center= -3.0D-04, -4.0D-08,  2.6D-01, r^2= 2.1D+01
   Bfn.  Coefficient  Atom+Function         Bfn.  Coefficient  Atom+Function  
  ----- ------------  ---------------      ----- ------------  ---------------
   135     25.234604   4 C  s               178    -25.237741   5 C  s         
   350    -12.500443   9 C  s               393     12.503284  10 C  s         
   487     -9.459636  17 H  s               496      9.460030  18 H  s         
    73      9.116499   2 C  dxz             116      9.116376   3 C  dxz       
   142      7.063686   4 C  px              185      7.064772   5 C  px        

 Vector   53  Occ=0.000000D+00  E= 1.969033D-01
              MO Center=  1.8D-04, -5.1D-08,  5.6D-01, r^2= 2.0D+01
   Bfn.  Coefficient  Atom+Function         Bfn.  Coefficient  Atom+Function  
  ----- ------------  ---------------      ----- ------------  ---------------
   433     15.710659  11 H  s               135    -13.333270   4 C  s         
   178    -13.328689   5 C  s               442     10.682652  12 H  s         
   451     10.680977  13 H  s               350      8.591614   9 C  s         
   393      8.589300  10 C  s                15     -8.348549   1 C  pz        
     5     -7.785151   1 C  s                49      7.112142   2 C  s         

 Vector   54  Occ=0.000000D+00  E= 2.041310D-01
              MO Center=  3.5D-05,  9.7D-08, -8.7D-01, r^2= 1.3D+01
   Bfn.  Coefficient  Atom+Function         Bfn.  Coefficient  Atom+Function  
  ----- ------------  ---------------      ----- ------------  ---------------
   158      4.897507   4 C  dxy             201      4.900187   5 C  dxy       
   161     -3.984971   4 C  dyz             204      3.982230   5 C  dyz       
   358     -2.937493   9 C  py              401      2.940335  10 C  py        
   376     -2.775093   9 C  dyz             419      2.772671  10 C  dyz       
   272     -2.160202   7 C  py              315      2.159101   8 C  py        

 Vector   55  Occ=0.000000D+00  E= 2.051836D-01
              MO Center=  1.2D-04, -3.7D-08,  2.1D+00, r^2= 1.2D+01
   Bfn.  Coefficient  Atom+Function         Bfn.  Coefficient  Atom+Function  
  ----- ------------  ---------------      ----- ------------  ---------------
    14      2.098541   1 C  py              373      1.626301   9 C  dxy       
   416     -1.628338  10 C  dxy              75     -1.458482   2 C  dyz       
   118     -1.458940   3 C  dyz             438     -1.406876  11 H  py        
   229     -1.236773   6 C  py              158     -1.184495   4 C  dxy       
   201      1.172608   5 C  dxy              57      1.152269   2 C  py        

 Vector   56  Occ=0.000000D+00  E= 2.138340D-01
              MO Center= -6.2D-05,  1.9D-08, -3.8D-01, r^2= 1.9D+01
   Bfn.  Coefficient  Atom+Function         Bfn.  Coefficient  Atom+Function  
  ----- ------------  ---------------      ----- ------------  ---------------
   460     18.873299  14 H  s               350    -11.882589   9 C  s         
   393    -11.884439  10 C  s               487    -11.256820  17 H  s         
   496    -11.256376  18 H  s               433      9.178014  11 H  s         
   230      8.656437   6 C  pz              157      8.283700   4 C  dxx       
   200      8.283584   5 C  dxx             220     -8.276829   6 C  s         

 Vector   57  Occ=0.000000D+00  E= 2.161827D-01
              MO Center=  3.4D-05, -7.2D-08,  1.9D-02, r^2= 2.1D+01
   Bfn.  Coefficient  Atom+Function         Bfn.  Coefficient  Atom+Function  
  ----- ------------  ---------------      ----- ------------  ---------------
   442     15.082031  12 H  s               451    -15.082942  13 H  s         
   469    -14.570018  15 H  s               478     14.569614  16 H  s         
   135     11.668814   4 C  s               178    -11.666190   5 C  s         
    56     -7.798964   2 C  px               99     -7.799256   3 C  px        
   159     -7.339077   4 C  dxz             202     -7.338947   5 C  dxz       

 Vector   58  Occ=0.000000D+00  E= 2.362771D-01
              MO Center= -3.2D-04,  1.0D-07, -1.2D+00, r^2= 1.8D+01
   Bfn.  Coefficient  Atom+Function         Bfn.  Coefficient  Atom+Function  
  ----- ------------  ---------------      ----- ------------  ---------------
   433      9.089770  11 H  s               469      9.055950  15 H  s         
   478      9.056205  16 H  s               442     -4.722409  12 H  s         
   451     -4.723997  13 H  s               221     -3.800572   6 C  s         
   291      3.811914   7 C  dzz             334      3.811976   8 C  dzz       
   271     -3.789273   7 C  px              314      3.789466   8 C  px        

 Vector   59  Occ=0.000000D+00  E= 2.411352D-01
              MO Center=  7.6D-05,  1.0D-07, -5.8D-01, r^2= 1.5D+01
   Bfn.  Coefficient  Atom+Function         Bfn.  Coefficient  Atom+Function  
  ----- ------------  ---------------      ----- ------------  ---------------
   358      2.876227   9 C  py              401      2.876122  10 C  py        
   229     -2.574623   6 C  py              290     -1.982805   7 C  dyz       
   333     -1.982735   8 C  dyz             247      1.743695   6 C  dyz       
   161      1.536653   4 C  dyz             204      1.536756   5 C  dyz       
   465      1.538555  14 H  py              287     -1.009337   7 C  dxy       

 Vector   60  Occ=0.000000D+00  E= 2.459576D-01
              MO Center=  5.1D-05,  1.3D-08, -1.1D-01, r^2= 2.2D+01
   Bfn.  Coefficient  Atom+Function         Bfn.  Coefficient  Atom+Function  
  ----- ------------  ---------------      ----- ------------  ---------------
   487    -12.122245  17 H  s               496     12.120835  18 H  s         
   469     11.958304  15 H  s               478    -11.958124  16 H  s         
   442      9.246969  12 H  s               451     -9.246539  13 H  s         
   377     -6.042130   9 C  dzz             420      6.041662  10 C  dzz       
    30     -5.835027   1 C  dxz             288      5.629084   7 C  dxz       

 Vector   61  Occ=0.000000D+00  E= 2.498607D-01
              MO Center=  4.6D-05,  3.2D-08,  2.5D-01, r^2= 1.8D+01
   Bfn.  Coefficient  Atom+Function         Bfn.  Coefficient  Atom+Function  
  ----- ------------  ---------------      ----- ------------  ---------------
   135     18.090589   4 C  s               178    -18.090761   5 C  s         
   350    -11.937780   9 C  s               393     11.938147  10 C  s         
    49     -8.494458   2 C  s                92      8.493597   3 C  s         
    30     -5.817854   1 C  dxz             159      3.949855   4 C  dxz       
   202      3.949261   5 C  dxz             357     -3.693814   9 C  px        

 Vector   62  Occ=0.000000D+00  E= 2.549832D-01
              MO Center= -2.1D-05, -5.4D-08,  8.4D-02, r^2= 1.9D+01
   Bfn.  Coefficient  Atom+Function         Bfn.  Coefficient  Atom+Function  
  ----- ------------  ---------------      ----- ------------  ---------------
   487     -8.572440  17 H  s               496     -8.574152  18 H  s         
   221      7.985765   6 C  s               442     -7.724255  12 H  s         
   451     -7.723777  13 H  s                49     -6.275627   2 C  s         
    92     -6.274630   3 C  s               135      6.218601   4 C  s         
   178      6.218645   5 C  s               157      5.179644   4 C  dxx       

 Vector   63  Occ=0.000000D+00  E= 2.569605D-01
              MO Center= -5.9D-05,  1.7D-08,  1.5D+00, r^2= 1.1D+01
   Bfn.  Coefficient  Atom+Function         Bfn.  Coefficient  Atom+Function  
  ----- ------------  ---------------      ----- ------------  ---------------
   161      8.477432   4 C  dyz             204     -8.477777   5 C  dyz       
    57     -5.179645   2 C  py              100      5.180150   3 C  py        
   373     -3.840214   9 C  dxy             416     -3.840300  10 C  dxy       
   358      2.756007   9 C  py              401     -2.756120  10 C  py        
   158      2.571627   4 C  dxy             201      2.571530   5 C  dxy       

 Vector   64  Occ=0.000000D+00  E= 2.600026D-01
              MO Center= -2.3D-04, -3.3D-08, -6.7D-01, r^2= 1.2D+01
   Bfn.  Coefficient  Atom+Function         Bfn.  Coefficient  Atom+Function  
  ----- ------------  ---------------      ----- ------------  ---------------
   350     -7.542101   9 C  s               393      7.542828  10 C  s         
   264      7.144276   7 C  s               307     -7.148791   8 C  s         
   135      6.939239   4 C  s               178     -6.940780   5 C  s         
   487     -2.922816  17 H  s               496      2.922630  18 H  s         
   142      2.254022   4 C  px              185      2.255382   5 C  px        

 Vector   65  Occ=0.000000D+00  E= 2.654980D-01
              MO Center=  1.6D-04,  2.8D-09,  8.8D-01, r^2= 2.1D+01
   Bfn.  Coefficient  Atom+Function         Bfn.  Coefficient  Atom+Function  
  ----- ------------  ---------------      ----- ------------  ---------------
     6     20.617607   1 C  s                49    -16.857712   2 C  s         
    92    -16.857541   3 C  s               433     15.822162  11 H  s         
   221    -13.368152   6 C  s               264      9.666738   7 C  s         
   307      9.663467   8 C  s               243     -8.455406   6 C  dxx       
   135      7.114908   4 C  s               178      7.113126   5 C  s         

 Vector   66  Occ=0.000000D+00  E= 2.727921D-01
              MO Center= -1.6D-04,  3.1D-09,  8.3D-02, r^2= 1.5D+01
   Bfn.  Coefficient  Atom+Function         Bfn.  Coefficient  Atom+Function  
  ----- ------------  ---------------      ----- ------------  ---------------
   135     12.217289   4 C  s               178     12.222437   5 C  s         
   221      7.500472   6 C  s                 6      6.264512   1 C  s         
   469      5.818167  15 H  s               478      5.822627  16 H  s         
   442     -4.936874  12 H  s               451     -4.935346  13 H  s         
    49     -4.658401   2 C  s                92     -4.656950   3 C  s         

 Vector   67  Occ=0.000000D+00  E= 2.787473D-01
              MO Center=  7.0D-05,  5.9D-08, -2.1D-02, r^2= 2.1D+01
   Bfn.  Coefficient  Atom+Function         Bfn.  Coefficient  Atom+Function  
  ----- ------------  ---------------      ----- ------------  ---------------
   350    -15.680710   9 C  s               393     15.680230  10 C  s         
   264     14.320347   7 C  s               307    -14.323559   8 C  s         
   469     10.672611  15 H  s               478    -10.672255  16 H  s         
    49      8.563638   2 C  s                92     -8.565931   3 C  s         
   288      5.731335   7 C  dxz             331      5.730366   8 C  dxz       

 Vector   68  Occ=0.000000D+00  E= 2.810570D-01
              MO Center= -2.7D-04, -7.9D-08, -9.1D-01, r^2= 1.5D+01
   Bfn.  Coefficient  Atom+Function         Bfn.  Coefficient  Atom+Function  
  ----- ------------  ---------------      ----- ------------  ---------------
   161      7.204854   4 C  dyz             204     -7.205483   5 C  dyz       
   358      4.422204   9 C  py              401     -4.421240  10 C  py        
    57     -3.192072   2 C  py              100      3.193302   3 C  py        
   272     -2.933007   7 C  py              315      2.934039   8 C  py        
   158     -2.809190   4 C  dxy             201     -2.808046   5 C  dxy       

 Vector   69  Occ=0.000000D+00  E= 2.815809D-01
              MO Center=  9.1D-05, -4.4D-06, -4.2D-01, r^2= 8.2D+00
   Bfn.  Coefficient  Atom+Function         Bfn.  Coefficient  Atom+Function  
  ----- ------------  ---------------      ----- ------------  ---------------
    32      2.599292   1 C  dyz             143     -2.435544   4 C  py        
   186     -2.434389   5 C  py               57      1.939552   2 C  py        
   100      1.937091   3 C  py               75     -1.734395   2 C  dyz       
   118     -1.732733   3 C  dyz              72     -1.535995   2 C  dxy       
   115      1.534318   3 C  dxy             158     -1.366364   4 C  dxy       

 Vector   70  Occ=0.000000D+00  E= 2.818475D-01
              MO Center= -1.2D-04,  4.4D-06,  1.7D+00, r^2= 1.7D+01
   Bfn.  Coefficient  Atom+Function         Bfn.  Coefficient  Atom+Function  
  ----- ------------  ---------------      ----- ------------  ---------------
   433     12.609535  11 H  s                15    -11.335912   1 C  pz        
   460      6.804915  14 H  s                 6     -5.798480   1 C  s         
   469      5.780897  15 H  s               478      5.779550  16 H  s         
     5     -5.719959   1 C  s               442      5.162525  12 H  s         
   451      5.161911  13 H  s               162     -4.914276   4 C  dzz       

 Vector   71  Occ=0.000000D+00  E= 2.885285D-01
              MO Center= -1.7D-04,  7.2D-08, -2.8D-01, r^2= 1.8D+01
   Bfn.  Coefficient  Atom+Function         Bfn.  Coefficient  Atom+Function  
  ----- ------------  ---------------      ----- ------------  ---------------
   135     17.918382   4 C  s               178    -17.922142   5 C  s         
    49     -9.023352   2 C  s                92      9.024874   3 C  s         
   264      6.724030   7 C  s               307     -6.724138   8 C  s         
   245      5.665609   6 C  dxz              73      4.960089   2 C  dxz       
   116      4.962478   3 C  dxz             288      4.859140   7 C  dxz       

 Vector   72  Occ=0.000000D+00  E= 2.898609D-01
              MO Center=  3.4D-04,  1.4D-07, -6.7D-01, r^2= 1.7D+01
   Bfn.  Coefficient  Atom+Function         Bfn.  Coefficient  Atom+Function  
  ----- ------------  ---------------      ----- ------------  ---------------
   487      9.325441  17 H  s               496      9.322868  18 H  s         
   157     -5.660582   4 C  dxx             200     -5.658805   5 C  dxx       
   357     -5.263654   9 C  px              400      5.264736  10 C  px        
   135     -4.794974   4 C  s               178     -4.782662   5 C  s         
   243     -4.293666   6 C  dxx             469      4.224732  15 H  s         

 Vector   73  Occ=0.000000D+00  E= 3.045968D-01
              MO Center=  7.9D-05,  3.3D-08,  1.1D+00, r^2= 1.4D+01
   Bfn.  Coefficient  Atom+Function         Bfn.  Coefficient  Atom+Function  
  ----- ------------  ---------------      ----- ------------  ---------------
   161      5.803352   4 C  dyz             204      5.803394   5 C  dyz       
    14      5.735541   1 C  py               57     -4.863473   2 C  py        
   100     -4.863271   3 C  py               72      4.727390   2 C  dxy       
   115     -4.727858   3 C  dxy             373     -3.711874   9 C  dxy       
   416      3.711663  10 C  dxy             358      2.769541   9 C  py        

 Vector   74  Occ=0.000000D+00  E= 3.066420D-01
              MO Center= -1.7D-05, -9.3D-08, -2.7D-01, r^2= 1.8D+01
   Bfn.  Coefficient  Atom+Function         Bfn.  Coefficient  Atom+Function  
  ----- ------------  ---------------      ----- ------------  ---------------
   221     10.713889   6 C  s               433     10.091694  11 H  s         
   264     -6.153092   7 C  s               307     -6.151621   8 C  s         
   273      5.269110   7 C  pz              316      5.268924   8 C  pz        
   374      5.284986   9 C  dxz             417     -5.285085  10 C  dxz       
    58     -5.113290   2 C  pz              101     -5.113362   3 C  pz        

 Vector   75  Occ=0.000000D+00  E= 3.068343D-01
              MO Center= -6.5D-05,  1.3D-07, -4.2D-01, r^2= 1.7D+01
   Bfn.  Coefficient  Atom+Function         Bfn.  Coefficient  Atom+Function  
  ----- ------------  ---------------      ----- ------------  ---------------
   264     14.412685   7 C  s               307     14.411350   8 C  s         
   460     13.892612  14 H  s               220    -11.318393   6 C  s         
   442    -11.184741  12 H  s               451    -11.185733  13 H  s         
   221    -10.912157   6 C  s               487      8.327119  17 H  s         
   496      8.329973  18 H  s               230      7.851184   6 C  pz        

 Vector   76  Occ=0.000000D+00  E= 3.176002D-01
              MO Center= -1.9D-05,  1.3D-07,  9.1D-01, r^2= 1.2D+01
   Bfn.  Coefficient  Atom+Function         Bfn.  Coefficient  Atom+Function  
  ----- ------------  ---------------      ----- ------------  ---------------
   143      5.914110   4 C  py              186      5.914439   5 C  py        
   376     -5.494632   9 C  dyz             419     -5.494701  10 C  dyz       
   229     -4.835820   6 C  py              158      4.427587   4 C  dxy       
   201     -4.427133   5 C  dxy             287     -4.447037   7 C  dxy       
   330      4.447181   8 C  dxy             358     -3.712782   9 C  py        

 Vector   77  Occ=0.000000D+00  E= 3.248520D-01
              MO Center= -1.0D-04,  1.2D-07, -3.0D-01, r^2= 1.8D+01
   Bfn.  Coefficient  Atom+Function         Bfn.  Coefficient  Atom+Function  
  ----- ------------  ---------------      ----- ------------  ---------------
   221     15.172795   6 C  s               433    -12.997479  11 H  s         
   460     12.672620  14 H  s               350     11.995295   9 C  s         
   393     11.995074  10 C  s               469     11.753373  15 H  s         
   478     11.757719  16 H  s               264    -11.584212   7 C  s         
   307    -11.582740   8 C  s                49     -8.880277   2 C  s         

 Vector   78  Occ=0.000000D+00  E= 3.318723D-01
              MO Center=  4.4D-05, -4.9D-08, -2.1D-02, r^2= 1.5D+01
   Bfn.  Coefficient  Atom+Function         Bfn.  Coefficient  Atom+Function  
  ----- ------------  ---------------      ----- ------------  ---------------
   487     17.709919  17 H  s               496    -17.711151  18 H  s         
   135     15.071583   4 C  s               178    -15.067839   5 C  s         
   349     -8.931942   9 C  s               392      8.932570  10 C  s         
   469      8.819385  15 H  s               478     -8.822108  16 H  s         
    30     -7.910782   1 C  dxz             263     -7.864881   7 C  s         

 Vector   79  Occ=0.000000D+00  E= 3.346657D-01
              MO Center=  1.1D-04,  8.8D-08,  5.9D-01, r^2= 1.8D+01
   Bfn.  Coefficient  Atom+Function         Bfn.  Coefficient  Atom+Function  
  ----- ------------  ---------------      ----- ------------  ---------------
   469     10.821461  15 H  s               478     10.818132  16 H  s         
   442     -7.382094  12 H  s               451     -7.383969  13 H  s         
   220     -6.627727   6 C  s               221      6.630800   6 C  s         
    73      6.421621   2 C  dxz             116     -6.424749   3 C  dxz       
   263     -6.077876   7 C  s               306     -6.074337   8 C  s         

 Vector   80  Occ=0.000000D+00  E= 3.388223D-01
              MO Center=  7.6D-05, -1.1D-07, -3.9D-01, r^2= 1.9D+01
   Bfn.  Coefficient  Atom+Function         Bfn.  Coefficient  Atom+Function  
  ----- ------------  ---------------      ----- ------------  ---------------
   469      7.097046  15 H  s               478     -7.094741  16 H  s         
   162     -6.092071   4 C  dzz             205      6.091843   5 C  dzz       
   350      6.121096   9 C  s               393     -6.119831  10 C  s         
   271     -5.387241   7 C  px              314     -5.386708   8 C  px        
   273      5.072720   7 C  pz              316     -5.071536   8 C  pz        

 Vector   81  Occ=0.000000D+00  E= 3.404267D-01
              MO Center=  1.2D-04,  1.1D-08, -1.2D+00, r^2= 1.7D+01
   Bfn.  Coefficient  Atom+Function         Bfn.  Coefficient  Atom+Function  
  ----- ------------  ---------------      ----- ------------  ---------------
   272      4.437039   7 C  py              315      4.436799   8 C  py        
   229     -4.072314   6 C  py              161     -3.814949   4 C  dyz       
   204     -3.813989   5 C  dyz             358     -3.746174   9 C  py        
   401     -3.745548  10 C  py              373      3.075415   9 C  dxy       
   416     -3.075372  10 C  dxy              57      2.063406   2 C  py        

 Vector   82  Occ=0.000000D+00  E= 3.507349D-01
              MO Center=  2.4D-05, -5.7D-09, -3.6D-01, r^2= 1.3D+01
   Bfn.  Coefficient  Atom+Function         Bfn.  Coefficient  Atom+Function  
  ----- ------------  ---------------      ----- ------------  ---------------
   158     16.986176   4 C  dxy             201     16.986453   5 C  dxy       
   376     -7.137791   9 C  dyz             419      7.137899  10 C  dyz       
   143     -4.419658   4 C  py              186      4.419119   5 C  py        
   161     -3.575117   4 C  dyz             204      3.575266   5 C  dyz       
   358     -3.409002   9 C  py              401      3.409386  10 C  py        

 Vector   83  Occ=0.000000D+00  E= 3.552197D-01
              MO Center= -5.8D-03,  1.2D-08,  1.3D-01, r^2= 1.5D+01
   Bfn.  Coefficient  Atom+Function         Bfn.  Coefficient  Atom+Function  
  ----- ------------  ---------------      ----- ------------  ---------------
   433     18.105137  11 H  s               178    -12.602227   5 C  s         
   135    -12.357565   4 C  s               393      9.158085  10 C  s         
   350      9.075589   9 C  s               469      8.939351  15 H  s         
   478      8.941380  16 H  s               442      8.847973  12 H  s         
   451      8.842380  13 H  s                33     -7.668668   1 C  dzz       

 Vector   84  Occ=0.000000D+00  E= 3.560937D-01
              MO Center=  5.7D-03, -8.6D-08,  1.2D-01, r^2= 1.4D+01
   Bfn.  Coefficient  Atom+Function         Bfn.  Coefficient  Atom+Function  
  ----- ------------  ---------------      ----- ------------  ---------------
   135     39.761542   4 C  s               178    -39.683719   5 C  s         
   350    -13.636053   9 C  s               393     13.579010  10 C  s         
    30     10.428345   1 C  dxz             245      8.039848   6 C  dxz       
    73      7.428785   2 C  dxz             116      7.435111   3 C  dxz       
   331      4.768264   8 C  dxz             288      4.744450   7 C  dxz       

 Vector   85  Occ=0.000000D+00  E= 3.650243D-01
              MO Center=  9.2D-05, -2.4D-07, -8.9D-02, r^2= 1.7D+01
   Bfn.  Coefficient  Atom+Function         Bfn.  Coefficient  Atom+Function  
  ----- ------------  ---------------      ----- ------------  ---------------
   159     17.719477   4 C  dxz             202    -17.719504   5 C  dxz       
    73     10.809396   2 C  dxz             116    -10.809399   3 C  dxz       
   433      9.697071  11 H  s               460      8.099019  14 H  s         
   374      7.957482   9 C  dxz             417     -7.957550  10 C  dxz       
    15     -7.354668   1 C  pz              243      6.565919   6 C  dxx       

 Vector   86  Occ=0.000000D+00  E= 3.706539D-01
              MO Center= -1.3D-04, -6.9D-09,  2.8D-01, r^2= 1.5D+01
   Bfn.  Coefficient  Atom+Function         Bfn.  Coefficient  Atom+Function  
  ----- ------------  ---------------      ----- ------------  ---------------
   143      6.786170   4 C  py              186     -6.785906   5 C  py        
   358     -3.944245   9 C  py              401      3.943840  10 C  py        
   376     -3.445139   9 C  dyz             419      3.445190  10 C  dyz       
    75      3.257273   2 C  dyz             118     -3.257435   3 C  dyz       
   373      2.973033   9 C  dxy             416      2.972250  10 C  dxy       

 Vector   87  Occ=0.000000D+00  E= 3.725165D-01
              MO Center=  8.4D-06, -3.8D-08,  2.2D-01, r^2= 1.9D+01
   Bfn.  Coefficient  Atom+Function         Bfn.  Coefficient  Atom+Function  
  ----- ------------  ---------------      ----- ------------  ---------------
   135     16.385369   4 C  s               178    -16.384891   5 C  s         
   469    -13.088341  15 H  s               478     13.087959  16 H  s         
   288     -7.879771   7 C  dxz             331     -7.880020   8 C  dxz       
   228      7.436009   6 C  px              487     -7.114934  17 H  s         
   496      7.115041  18 H  s               263      6.709153   7 C  s         

 Vector   88  Occ=0.000000D+00  E= 3.759329D-01
              MO Center= -3.6D-05, -1.0D-07,  4.9D-02, r^2= 1.5D+01
   Bfn.  Coefficient  Atom+Function         Bfn.  Coefficient  Atom+Function  
  ----- ------------  ---------------      ----- ------------  ---------------
   460    -16.777410  14 H  s                15     15.307077   1 C  pz        
   433    -13.431087  11 H  s               487     10.719362  17 H  s         
   496     10.720401  18 H  s               157    -10.540010   4 C  dxx       
   200    -10.540019   5 C  dxx               5     10.442110   1 C  s         
   350     10.467634   9 C  s               393     10.468148  10 C  s         

 Vector   89  Occ=0.000000D+00  E= 3.841610D-01
              MO Center=  2.8D-05, -1.5D-08, -4.1D-01, r^2= 1.7D+01
   Bfn.  Coefficient  Atom+Function         Bfn.  Coefficient  Atom+Function  
  ----- ------------  ---------------      ----- ------------  ---------------
    30     13.299162   1 C  dxz             487     -9.182823  17 H  s         
[...]
  ----------------------------------------------------------------------------
     Transition Moments    X -0.00003   Y  0.00000   Z  0.19376
     Transition Moments   XX  1.26070  XY -0.00000  XZ -0.00061
     Transition Moments   YY -0.02435  YZ -0.00000  ZZ -0.96918
     Dipole Oscillator Strength                    0.0035983646
     Electric Quadrupole                           0.0000000198
     Magnetic Dipole                               0.0000000000
     Total Oscillator Strength                     0.0035983844

     Occ.   33  a   ---  Virt.   35  a       -0.68081
     Occ.   34  a   ---  Virt.   36  a       -0.72041
  ----------------------------------------------------------------------------
  Root   3 singlet a              0.182287228 a.u.                4.9603 eV 
  ----------------------------------------------------------------------------
     Transition Moments    X  0.83367   Y -0.00000   Z  0.00152
     Transition Moments   XX -0.00074  XY  0.00000  XZ  0.02490
     Transition Moments   YY  0.00007  YZ  0.00000  ZZ  0.00064
     Dipole Oscillator Strength                    0.0844612604
     Electric Quadrupole                           0.0000000000
     Magnetic Dipole                               0.0000000885
     Total Oscillator Strength                     0.0844613489

     Occ.   32  a   ---  Virt.   35  a       -0.42454
     Occ.   32  a   ---  Virt.   45  a       -0.06650
     Occ.   33  a   ---  Virt.   36  a       -0.85955
     Occ.   34  a   ---  Virt.   35  a       -0.15989
     Occ.   34  a   ---  Virt.   45  a       -0.12911
     Occ.   34  a   ---  Virt.   49  a       -0.08175
     Occ.   34  a   ---  Virt.   55  a        0.05530
  ----------------------------------------------------------------------------
  Root   4 singlet a              0.202180054 a.u.                5.5016 eV 
  ----------------------------------------------------------------------------
     Transition Moments    X -0.00000   Y -0.00010   Z -0.00000
     Transition Moments   XX -0.00000  XY  0.32928  XZ -0.00000
     Transition Moments   YY -0.00000  YZ -0.00033  ZZ -0.00000
     Dipole Oscillator Strength                    0.0000000013
     Electric Quadrupole                           0.0000000048
     Magnetic Dipole                               0.0000000020
     Total Oscillator Strength                     0.0000000081

     Occ.   30  a   ---  Virt.   38  a       -0.07455
     Occ.   32  a   ---  Virt.   39  a       -0.08008
     Occ.   34  a   ---  Virt.   37  a       -0.90599
     Occ.   34  a   ---  Virt.   39  a       -0.28172
     Occ.   34  a   ---  Virt.   40  a        0.08799
     Occ.   34  a   ---  Virt.   42  a       -0.21077
     Occ.   34  a   ---  Virt.   46  a        0.06334
     Occ.   34  a   ---  Virt.   53  a        0.11156
     Occ.   34  a   ---  Virt.   56  a       -0.05096
     Occ.   34  a   ---  Virt.   58  a       -0.05091
  ----------------------------------------------------------------------------
  Root   5 singlet a              0.207591190 a.u.                5.6488 eV 
  ----------------------------------------------------------------------------
     Transition Moments    X  0.00136   Y  0.00000   Z -3.64000
     Transition Moments   XX  1.16788  XY -0.00000  XZ -0.00099
     Transition Moments   YY -0.07734  YZ -0.00000  ZZ -1.67697
     Dipole Oscillator Strength                    1.8336665320
     Electric Quadrupole                           0.0000000969
     Magnetic Dipole                               0.0000000000
     Total Oscillator Strength                     1.8336666289

     Occ.   32  a   ---  Virt.   36  a        0.14202
     Occ.   32  a   ---  Virt.   54  a       -0.05814
     Occ.   33  a   ---  Virt.   35  a       -0.68202
     Occ.   33  a   ---  Virt.   45  a       -0.12423
     Occ.   33  a   ---  Virt.   49  a       -0.06765
     Occ.   34  a   ---  Virt.   36  a        0.64288
     Occ.   34  a   ---  Virt.   50  a        0.10078
  ----------------------------------------------------------------------------
  Root   6 singlet a              0.214071531 a.u.                5.8252 eV 
  ----------------------------------------------------------------------------
     Transition Moments    X  0.00000   Y -0.06169   Z -0.00000
     Transition Moments   XX -0.00001  XY  0.00004  XZ -0.00000
     Transition Moments   YY -0.00000  YZ  0.29889  ZZ -0.00002
     Dipole Oscillator Strength                    0.0005432037
     Electric Quadrupole                           0.0000000047
     Magnetic Dipole                               0.0000000478
     Total Oscillator Strength                     0.0005432562

     Occ.   28  a   ---  Virt.   35  a       -0.08884
     Occ.   31  a   ---  Virt.   35  a        0.98687
  ----------------------------------------------------------------------------
  Root   7 singlet a              0.220618060 a.u.                6.0033 eV 
  ----------------------------------------------------------------------------
     Transition Moments    X -0.00000   Y -0.09221   Z  0.00000
     Transition Moments   XX  0.00000  XY  0.00162  XZ -0.00000
     Transition Moments   YY  0.00000  YZ -2.02956  ZZ  0.00000
     Dipole Oscillator Strength                    0.0012504810
     Electric Quadrupole                           0.0000002355
     Magnetic Dipole                               0.0000006876
     Total Oscillator Strength                     0.0012514042

     Occ.   30  a   ---  Virt.   37  a       -0.09356
     Occ.   32  a   ---  Virt.   41  a       -0.07077
     Occ.   33  a   ---  Virt.   39  a        0.06652
     Occ.   34  a   ---  Virt.   38  a       -0.95978
     Occ.   34  a   ---  Virt.   41  a       -0.15930
     Occ.   34  a   ---  Virt.   44  a        0.05419
     Occ.   34  a   ---  Virt.   52  a        0.08964
     Occ.   34  a   ---  Virt.   61  a        0.11470
  ----------------------------------------------------------------------------
  Root   8 singlet a              0.224833652 a.u.                6.1180 eV 
  ----------------------------------------------------------------------------
     Transition Moments    X  0.00000   Y  0.00017   Z  0.00000
     Transition Moments   XX -0.00000  XY -2.08388  XZ  0.00000
     Transition Moments   YY  0.00000  YZ -0.00001  ZZ -0.00000
     Dipole Oscillator Strength                    0.0000000046
     Electric Quadrupole                           0.0000002628
     Magnetic Dipole                               0.0000008364
     Total Oscillator Strength                     0.0000011038

     Occ.   30  a   ---  Virt.   41  a        0.06349
     Occ.   32  a   ---  Virt.   37  a        0.13912
     Occ.   32  a   ---  Virt.   40  a        0.05767
     Occ.   33  a   ---  Virt.   38  a       -0.05224
     Occ.   34  a   ---  Virt.   37  a       -0.28049
     Occ.   34  a   ---  Virt.   39  a        0.90346
     Occ.   34  a   ---  Virt.   40  a        0.18508
     Occ.   34  a   ---  Virt.   42  a        0.07241
     Occ.   34  a   ---  Virt.   43  a        0.08568
     Occ.   34  a   ---  Virt.   47  a        0.06145
     Occ.   34  a   ---  Virt.   58  a       -0.06498
     Occ.   34  a   ---  Virt.   62  a        0.08799

              Target root =      1
          Target symmetry = none
      Ground state energy =   -385.587565352004
        Excitation energy =      0.091319030801
     Excited state energy =   -385.496246321203

  stored tddft:energy   -385.49624632120305     

    8 smallest eigenvalue differences (eV) 
--------------------------------------------------------
  No. Spin  Occ  Vir  Irrep   E(Occ)    E(Vir)   E(Diff)
--------------------------------------------------------
    1    1   34   35 a        -0.276    -0.020     6.961
    2    1   34   36 a        -0.276     0.012     7.822
    3    1   33   35 a        -0.315    -0.020     8.037
    4    1   33   36 a        -0.315     0.012     8.898
    5    1   34   37 a        -0.276     0.053     8.937
    6    1   34   38 a        -0.276     0.067     9.331
    7    1   34   39 a        -0.276     0.071     9.425
    8    1   34   40 a        -0.276     0.089     9.924
--------------------------------------------------------

  Entering Davidson iterations
  Restricted triplet excited states

  Iter   NTrls   NConv    DeltaV     DeltaE      Time   
  ----  ------  ------  ---------  ---------  --------- 
    1      8       0     0.62E-01   0.10+100      326.2
    2     16       0     0.15E-01   0.12E-01      330.1
    3     24       0     0.58E-02   0.74E-03      330.3
    4     32       0     0.13E+00   0.26E-01      331.5
    5     40       0     0.40E-01   0.15E-01      330.6
    6     48       2     0.11E+00   0.26E-02      333.4
    7     54       3     0.43E-01   0.91E-02      301.7
    8     59       5     0.19E-01   0.13E-02      285.0
    9     62       5     0.57E-02   0.25E-03      253.1
   10     65       5     0.15E-02   0.16E-04      253.3
   11     68       6     0.31E-03   0.75E-06      251.8
   12     70       8     0.71E-04   0.30E-07      236.0
  ----  ------  ------  ---------  ---------  --------- 
  Convergence criterion met

  Ground state a        -385.587565352004 a.u.

  ----------------------------------------------------------------------------
  Root   1 triplet a              0.072130832 a.u.                1.9628 eV 
  ----------------------------------------------------------------------------
     Transition Moments                    Spin forbidden
     Oscillator Strength                   Spin forbidden

     Occ.   34  a   ---  Virt.   35  a        0.99463
  ----------------------------------------------------------------------------
  Root   2 triplet a              0.089683145 a.u.                2.4404 eV 
  ----------------------------------------------------------------------------
     Transition Moments                    Spin forbidden
     Oscillator Strength                   Spin forbidden

     Occ.   30  a   ---  Virt.   45  a        0.08262
     Occ.   30  a   ---  Virt.   49  a       -0.08018
     Occ.   32  a   ---  Virt.   36  a       -0.06891
     Occ.   32  a   ---  Virt.   54  a       -0.05034
     Occ.   32  a   ---  Virt.   63  a       -0.05187
     Occ.   33  a   ---  Virt.   35  a        0.60439
     Occ.   34  a   ---  Virt.   36  a        0.76490
     Occ.   34  a   ---  Virt.   63  a       -0.05643
  ----------------------------------------------------------------------------
  Root   3 triplet a              0.104006454 a.u.                2.8302 eV 
  ----------------------------------------------------------------------------
     Transition Moments                    Spin forbidden
     Oscillator Strength                   Spin forbidden

     Occ.   24  a   ---  Virt.   35  a       -0.05023
     Occ.   30  a   ---  Virt.   35  a        0.07371
     Occ.   33  a   ---  Virt.   35  a        0.77217
     Occ.   34  a   ---  Virt.   36  a       -0.62223
  ----------------------------------------------------------------------------
  Root   4 triplet a              0.141874377 a.u.                3.8606 eV 
  ----------------------------------------------------------------------------
     Transition Moments                    Spin forbidden
     Oscillator Strength                   Spin forbidden

     Occ.   24  a   ---  Virt.   36  a        0.05698
     Occ.   30  a   ---  Virt.   36  a       -0.05244
     Occ.   32  a   ---  Virt.   35  a        0.12619
     Occ.   33  a   ---  Virt.   36  a       -0.98301
  ----------------------------------------------------------------------------
  Root   5 triplet a              0.172195102 a.u.                4.6857 eV 
  ----------------------------------------------------------------------------
     Transition Moments                    Spin forbidden
     Oscillator Strength                   Spin forbidden

     Occ.   32  a   ---  Virt.   35  a       -0.95667
     Occ.   32  a   ---  Virt.   55  a        0.05493
     Occ.   33  a   ---  Virt.   36  a       -0.12032
     Occ.   33  a   ---  Virt.   50  a       -0.05822
     Occ.   33  a   ---  Virt.   54  a        0.06077
     Occ.   33  a   ---  Virt.   63  a        0.05237
     Occ.   34  a   ---  Virt.   45  a        0.16381
     Occ.   34  a   ---  Virt.   49  a       -0.11032
  ----------------------------------------------------------------------------
  Root   6 triplet a              0.199572273 a.u.                5.4306 eV 
  ----------------------------------------------------------------------------
     Transition Moments                    Spin forbidden
     Oscillator Strength                   Spin forbidden

     Occ.   24  a   ---  Virt.   35  a       -0.10122
     Occ.   30  a   ---  Virt.   35  a       -0.43981
     Occ.   32  a   ---  Virt.   36  a       -0.82530
     Occ.   32  a   ---  Virt.   68  a        0.05380
     Occ.   33  a   ---  Virt.   45  a       -0.10512
     Occ.   33  a   ---  Virt.   49  a        0.11672
     Occ.   34  a   ---  Virt.   50  a       -0.17320
     Occ.   34  a   ---  Virt.   54  a        0.14949
     Occ.   34  a   ---  Virt.   63  a        0.13091
     Occ.   34  a   ---  Virt.   68  a       -0.06845
  ----------------------------------------------------------------------------
  Root   7 triplet a              0.200476163 a.u.                5.4552 eV 
  ----------------------------------------------------------------------------
     Transition Moments                    Spin forbidden
     Oscillator Strength                   Spin forbidden

     Occ.   30  a   ---  Virt.   38  a        0.07772
     Occ.   32  a   ---  Virt.   39  a        0.08305
     Occ.   34  a   ---  Virt.   37  a        0.89753
     Occ.   34  a   ---  Virt.   39  a        0.28812
     Occ.   34  a   ---  Virt.   40  a       -0.08702
     Occ.   34  a   ---  Virt.   42  a        0.22180
     Occ.   34  a   ---  Virt.   46  a       -0.07269
     Occ.   34  a   ---  Virt.   53  a       -0.11503
     Occ.   34  a   ---  Virt.   56  a        0.05466
     Occ.   34  a   ---  Virt.   58  a        0.05374
  ----------------------------------------------------------------------------
  Root   8 triplet a              0.206425773 a.u.                5.6171 eV 
  ----------------------------------------------------------------------------
     Transition Moments                    Spin forbidden
     Oscillator Strength                   Spin forbidden

     Occ.   24  a   ---  Virt.   45  a        0.09836
     Occ.   24  a   ---  Virt.   49  a       -0.09616
     Occ.   30  a   ---  Virt.   35  a        0.76830
     Occ.   30  a   ---  Virt.   45  a       -0.05557
     Occ.   30  a   ---  Virt.   49  a       -0.10893
     Occ.   32  a   ---  Virt.   36  a       -0.44752
     Occ.   33  a   ---  Virt.   35  a       -0.08304
     Occ.   33  a   ---  Virt.   45  a        0.34913
     Occ.   33  a   ---  Virt.   49  a       -0.15058
     Occ.   33  a   ---  Virt.   59  a       -0.06579

              Target root =      1
          Target symmetry = none
      Ground state energy =   -385.587565352004
        Excitation energy =      0.072130831671
     Excited state energy =   -385.515434520333

  stored tddft:energy   -385.51543452033269     

 Task  times  cpu:     8762.1s     wall:    10343.4s


                                NWChem Input Module
                                -------------------


 Summary of allocated global arrays
-----------------------------------
  No active global arrays


MA_summarize_allocated_blocks: starting scan ...
heap block 'gridpts', handle 72, address 0x136e94b8:
	type of elements:		double precision
	number of elements:		5242759432
	address of client space:	0x136e9540
	index for client space:		12594687
	total number of bytes:		41942075600
MA_summarize_allocated_blocks: scan completed: 1 heap block, 0 stack blocks
MA usage statistics:

	allocation statistics:
					      heap	     stack
					      ----	     -----
	current number of blocks	         1	         0
	maximum number of blocks	        18	        53
	current total bytes		41942075600	         0
	maximum total bytes		41944164016	  48520280
	maximum total K-bytes		  41944165	     48521
	maximum total M-bytes		     41945	        49


                                     CITATION
                                     --------
                Please cite the following reference when publishing
                           results obtained with NWChem:

          E. Apra, E. J. Bylaska, W. A. de Jong, N. Govind, K. Kowalski,
       T. P. Straatsma, M. Valiev, H. J. J. van Dam, Y. Alexeev, J. Anchell,
       V. Anisimov, F. W. Aquino, R. Atta-Fynn, J. Autschbach, N. P. Bauman,
     J. C. Becca, D. E. Bernholdt, K. Bhaskaran-Nair, S. Bogatko, P. Borowski,
         J. Boschen, J. Brabec, A. Bruner, E. Cauet, Y. Chen, G. N. Chuev,
      C. J. Cramer, J. Daily, M. J. O. Deegan, T. H. Dunning Jr., M. Dupuis,
   K. G. Dyall, G. I. Fann, S. A. Fischer, A. Fonari, H. Fruchtl, L. Gagliardi,
      J. Garza, N. Gawande, S. Ghosh, K. Glaesemann, A. W. Gotz, J. Hammond,
       V. Helms, E. D. Hermes, K. Hirao, S. Hirata, M. Jacquelin, L. Jensen,
   B. G. Johnson, H. Jonsson, R. A. Kendall, M. Klemm, R. Kobayashi, V. Konkov,
      S. Krishnamoorthy, M. Krishnan, Z. Lin, R. D. Lins, R. J. Littlefield,
      A. J. Logsdail, K. Lopata, W. Ma, A. V. Marenich, J. Martin del Campo,
   D. Mejia-Rodriguez, J. E. Moore, J. M. Mullin, T. Nakajima, D. R. Nascimento,
    J. A. Nichols, P. J. Nichols, J. Nieplocha, A. Otero-de-la-Roza, B. Palmer,
    A. Panyala, T. Pirojsirikul, B. Peng, R. Peverati, J. Pittner, L. Pollack,
   R. M. Richard, P. Sadayappan, G. C. Schatz, W. A. Shelton, D. W. Silverstein,
   D. M. A. Smith, T. A. Soares, D. Song, M. Swart, H. L. Taylor, G. S. Thomas,
            V. Tipparaju, D. G. Truhlar, K. Tsemekhman, T. Van Voorhis,
      A. Vazquez-Mayagoitia, P. Verma, O. Villa, A. Vishnu, K. D. Vogiatzis,
        D. Wang, J. H. Weare, M. J. Williamson, T. L. Windus, K. Wolinski,
        A. T. Wong, Q. Wu, C. Yang, Q. Yu, M. Zacharias, Z. Zhang, Y. Zhao,
                                and R. J. Harrison
                        "NWChem: Past, present, and future
                         J. Chem. Phys. 152, 184102 (2020)
                               doi:10.1063/5.0004997

                                      AUTHORS
                                      -------
  E. Apra, E. J. Bylaska, N. Govind, K. Kowalski, M. Valiev, D. Mejia-Rodriguez,
       A. Kunitsa, N. P. Bauman, A. Panyala, W. A. de Jong, T. P. Straatsma,
   H. J. J. van Dam, D. Wang, T. L. Windus, J. Hammond, J. Autschbach, A. Woods,
    K. Bhaskaran-Nair, J. Brabec, K. Lopata, S. A. Fischer, S. Krishnamoorthy,
     M. Jacquelin, W. Ma, M. Klemm, O. Villa, Y. Chen, V. Anisimov, F. Aquino,
     S. Hirata, M. T. Hackler, E. Hermes, L. Jensen, J. E. Moore, J. C. Becca,
      V. Konjkov, T. Risthaus, M. Malagoli, A. Marenich, A. Otero-de-la-Roza,
        J. Mullin, P. Nichols, R. Peverati, J. Pittner, Y. Zhao, P.-D. Fan,
        A. Fonari, M. J. Williamson, R. J. Harrison, J. R. Rehr, M. Dupuis,
     D. Silverstein, D. M. A. Smith, J. Nieplocha, V. Tipparaju, M. Krishnan,
     B. E. Van Kuiken, A. Vazquez-Mayagoitia, M. Swart, Q. Wu, T. Van Voorhis,
     A. A. Auer, M. Nooijen, L. D. Crosby, E. Brown, G. Cisneros, G. I. Fann,
   H. Fruchtl, J. Garza, K. Hirao, R. A. Kendall, J. A. Nichols, K. Tsemekhman,
    K. Wolinski, J. Anchell, D. E. Bernholdt, P. Borowski, T. Clark, D. Clerc,
   H. Dachsel, M. J. O. Deegan, K. Dyall, D. Elwood, E. Glendening, M. Gutowski,
   A. C. Hess, J. Jaffe, B. G. Johnson, J. Ju, R. Kobayashi, R. Kutteh, Z. Lin,
   R. Littlefield, X. Long, B. Meng, T. Nakajima, S. Niu, L. Pollack, M. Rosing,
   K. Glaesemann, G. Sandrone, M. Stave, H. Taylor, G. Thomas, J. H. van Lenthe,
                               A. T. Wong, Z. Zhang.

 Total times  cpu:     8762.1s     wall:    10343.9s
