 argument  1 = /home/aditisingh4812/nw_chem/nwchem-run/nwchem-run/tddft/closed/lcwpbe/geom-MOL/benzothiadiazole.nw
                                         
                                         


             Northwest Computational Chemistry Package (NWChem) 7.2.3
             --------------------------------------------------------


                    Environmental Molecular Sciences Laboratory
                       Pacific Northwest National Laboratory
                                Richland, WA 99352

                              Copyright (c) 1994-2022
                       Pacific Northwest National Laboratory
                            Battelle Memorial Institute

             NWChem is an open-source computational chemistry package
                        distributed under the terms of the
                      Educational Community License (ECL) 2.0
             A copy of the license is included with this distribution
                              in the LICENSE.TXT file

                                  ACKNOWLEDGMENT
                                  --------------

            This software and its documentation were developed at the
            EMSL at Pacific Northwest National Laboratory, a multiprogram
            national laboratory, operated for the U.S. Department of Energy
            by Battelle under Contract Number DE-AC05-76RL01830. Support
            for this work was provided by the Department of Energy Office
            of Biological and Environmental Research, Office of Basic
            Energy Sciences, and the Office of Advanced Scientific Computing.


           Job information
           ---------------

    hostname        = p20
    program         = /home/aditisingh4812/nw_chem/nwchem-7.2.3-release.revision-d690e065-srconly.2024-08-27/nwchem-7.2.3/bin/LINUX64/nwchem
    date            = Tue Apr  8 03:04:20 2025

    compiled        = Mon_Apr_07_18:51:54_2025
    source          = /home/aditisingh4812/nw_chem/nwchem-7.2.3-release.revision-d690e065-srconly.2024-08-27/nwchem-7.2.3
    nwchem branch   = 7.2.3
    nwchem revision = d690e065
    ga revision     = 5.8.0
    use scalapack   = F
    input           = /home/aditisingh4812/nw_chem/nwchem-run/nwchem-run/tddft/closed/lcwpbe/geom-MOL/benzothiadiazole.nw
    prefix          = benzothiadiazole.
    data base       = ./benzothiadiazole.db
    status          = startup
    nproc           =       48
    time left       =     -1s



           Memory information
           ------------------

    heap     = ********** doubles = 100000.0 Mbytes
    stack    = ********** doubles = 100000.0 Mbytes
    global   = ********** doubles = 100000.0 Mbytes (distinct from heap & stack)
    total    = ********** doubles = 300000.0 Mbytes
    verify   = yes
    hardfail = no 


           Directory information
           ---------------------

  0 permanent = .
  0 scratch   = .




                                NWChem Input Module
                                -------------------



 Scaling coordinates for geometry "geometry" by  1.889725989
 (inverse scale =  0.529177249)



                             Geometry "geometry" -> ""
                             -------------------------

 Output coordinates in angstroms (scale by  1.889725989 to convert to a.u.)

  No.       Tag          Charge          X              Y              Z
 ---- ---------------- ---------- -------------- -------------- --------------
    1 S                   16.0000     0.00000000     0.00000000     2.25072991
    2 N                    7.0000     1.25941500     0.00000000     1.21360891
    3 N                    7.0000    -1.25941500     0.00000000     1.21360891
    4 C                    6.0000     0.71684800     0.00000000    -0.01347809
    5 C                    6.0000    -0.71684800     0.00000000    -0.01347809
    6 C                    6.0000     1.43200000     0.00000000    -1.23857109
    7 C                    6.0000    -1.43200000     0.00000000    -1.23857109
    8 C                    6.0000     0.71420200     0.00000000    -2.40186009
    9 C                    6.0000    -0.71420200     0.00000000    -2.40186009
   10 H                    1.0000     2.50857100     0.00000000    -1.22998009
   11 H                    1.0000    -2.50857100     0.00000000    -1.22998009
   12 H                    1.0000     1.23108300     0.00000000    -3.34766609
   13 H                    1.0000    -1.23108300     0.00000000    -3.34766609

      Atomic Mass 
      ----------- 

      S                 31.972070
      N                 14.003070
      C                 12.000000
      H                  1.007825


 Effective nuclear repulsion energy (a.u.)     478.0007831309

            Nuclear Dipole moment (a.u.) 
            ----------------------------
        X                 Y               Z
 ---------------- ---------------- ----------------
     0.0000000000     0.0000000000     0.0000000000


            XYZ format geometry
            -------------------
    13
 geometry
 S                     0.00000000     0.00000000     2.25072991
 N                     1.25941500     0.00000000     1.21360891
 N                    -1.25941500     0.00000000     1.21360891
 C                     0.71684800     0.00000000    -0.01347809
 C                    -0.71684800     0.00000000    -0.01347809
 C                     1.43200000     0.00000000    -1.23857109
 C                    -1.43200000     0.00000000    -1.23857109
 C                     0.71420200     0.00000000    -2.40186009
 C                    -0.71420200     0.00000000    -2.40186009
 H                     2.50857100     0.00000000    -1.22998009
 H                    -2.50857100     0.00000000    -1.22998009
 H                     1.23108300     0.00000000    -3.34766609
 H                    -1.23108300     0.00000000    -3.34766609

 ==============================================================================
                                internuclear distances
 ------------------------------------------------------------------------------
       center one      |      center two      | atomic units |  angstroms
 ------------------------------------------------------------------------------
    2 N                |   1 S                |     3.08306  |     1.63149
    3 N                |   1 S                |     3.08306  |     1.63149
    4 C                |   2 N                |     2.53542  |     1.34169
    5 C                |   3 N                |     2.53542  |     1.34169
    5 C                |   4 C                |     2.70929  |     1.43370
    6 C                |   4 C                |     2.68068  |     1.41855
    7 C                |   5 C                |     2.68068  |     1.41855
    8 C                |   6 C                |     2.58311  |     1.36692
    9 C                |   7 C                |     2.58311  |     1.36692
    9 C                |   8 C                |     2.69929  |     1.42840
   10 H                |   6 C                |     2.03449  |     1.07661
   11 H                |   7 C                |     2.03449  |     1.07661
   12 H                |   8 C                |     2.03680  |     1.07783
   13 H                |   9 C                |     2.03680  |     1.07783
 ------------------------------------------------------------------------------
                         number of included internuclear distances:         14
 ==============================================================================



 ==============================================================================
                                 internuclear angles
 ------------------------------------------------------------------------------
        center 1       |       center 2       |       center 3       |  degrees
 ------------------------------------------------------------------------------
    2 N                |   1 S                |   3 N                |   101.06
    1 S                |   2 N                |   4 C                |   105.62
    1 S                |   3 N                |   5 C                |   105.62
    2 N                |   4 C                |   5 C                |   113.85
    2 N                |   4 C                |   6 C                |   125.87
    5 C                |   4 C                |   6 C                |   120.27
    3 N                |   5 C                |   4 C                |   113.85
    3 N                |   5 C                |   7 C                |   125.87
    4 C                |   5 C                |   7 C                |   120.27
    4 C                |   6 C                |   8 C                |   118.05
    4 C                |   6 C                |  10 H                |   119.82
    8 C                |   6 C                |  10 H                |   122.13
    5 C                |   7 C                |   9 C                |   118.05
    5 C                |   7 C                |  11 H                |   119.82
    9 C                |   7 C                |  11 H                |   122.13
    6 C                |   8 C                |   9 C                |   121.68
    6 C                |   8 C                |  12 H                |   119.67
    9 C                |   8 C                |  12 H                |   118.66
    7 C                |   9 C                |   8 C                |   121.68
    7 C                |   9 C                |  13 H                |   119.67
    8 C                |   9 C                |  13 H                |   118.66
 ------------------------------------------------------------------------------
                            number of included internuclear angles:         21
 ==============================================================================





 Summary of "ao basis" -> "" (cartesian)
 ------------------------------------------------------------------------------
       Tag                 Description            Shells   Functions and Types
 ---------------- ------------------------------  ------  ---------------------
 *                         def2-TZVPD                 on all atoms 


  pbe96 is a nonlocal functional; adding pw91lda local functional. 

                                 NWChem DFT Module
                                 -----------------


                      Basis "ao basis" -> "ao basis" (cartesian)
                      -----
  S (Sulphur)
  -----------
            Exponent  Coefficients 
       -------------- ---------------------------------------------------------
  1 S  6.07009281E+04  0.000547
  1 S  9.10261069E+03  0.004230
  1 S  2.07141660E+03  0.021748
  1 S  5.86024768E+02  0.085100
  1 S  1.90553950E+02  0.247991
  1 S  6.76303843E+01  0.467036
  1 S  2.51273069E+01  0.364346

  2 S  1.12574630E+02  0.021670
  2 S  3.47955542E+01  0.093602
  2 S  6.51155562E+00 -0.260680

  3 S  3.23990323E+00  1.284209
  3 S  1.54771609E+00  0.660364

  4 S  4.05410301E-01  1.000000

  5 S  1.45506511E-01  1.000000

  6 S  5.01788395E-02  1.000000

  7 P  5.64367160E+02  0.002480
  7 P  1.33426244E+02  0.019678
  7 P  4.24682712E+01  0.089980
  7 P  1.56165276E+01  0.257059
  7 P  6.10939885E+00  0.435152

  8 P  2.44041602E+00  1.000000

  9 P  8.38822013E-01  1.000000

 10 P  3.12887469E-01  1.000000

 11 P  1.07701090E-01  1.000000

 12 P  3.03598336E-02  1.000000

 13 D  3.75600000E+00  0.200000
 13 D  8.12000000E-01  1.000000

 14 D  2.73000000E-01  1.000000

 15 D  8.15470250E-02  1.000000

 16 F  5.57000000E-01  1.000000

  N (Nitrogen)
  ------------
            Exponent  Coefficients 
       -------------- ---------------------------------------------------------
  1 S  1.97308006E+04  0.000219
  1 S  2.95789587E+03  0.001696
  1 S  6.73221336E+02  0.008795
  1 S  1.90682495E+02  0.035359
  1 S  6.22954419E+01  0.110958
  1 S  2.26541612E+01  0.249830

  2 S  8.97914774E+00  0.406239
  2 S  3.68630024E+00  0.243382

  3 S  8.46600768E-01  1.000000

  4 S  3.36471338E-01  1.000000

  5 S  1.36476537E-01  1.000000

  6 S  6.84416058E-02  1.000000

  7 P  4.92003805E+01  0.005555
  7 P  1.13467905E+01  0.038052
  7 P  3.42739724E+00  0.149537
  7 P  1.17855251E+00  0.349493

  8 P  4.16422050E-01  1.000000

  9 P  1.42608260E-01  1.000000

 10 D  1.65400000E+00  1.000000

 11 D  4.69000000E-01  1.000000

 12 D  1.28296421E-01  1.000000

 13 F  1.09300000E+00  1.000000

  C (Carbon)
  ----------
            Exponent  Coefficients 
       -------------- ---------------------------------------------------------
  1 S  1.35753497E+04  0.000222
  1 S  2.03523337E+03  0.001723
  1 S  4.63225624E+02  0.008926
  1 S  1.31200196E+02  0.035728
  1 S  4.28530159E+01  0.110763
  1 S  1.55841858E+01  0.242956

  2 S  6.20671385E+00  0.414403
  2 S  2.57648965E+00  0.237450

  3 S  5.76963394E-01  1.000000

  4 S  2.29728314E-01  1.000000

  5 S  9.51644400E-02  1.000000

  6 S  4.84754014E-02  1.000000

  7 P  3.46972322E+01  0.005333
  7 P  7.95826228E+00  0.035864
  7 P  2.37808269E+00  0.142159
  7 P  8.14332082E-01  0.342705

  8 P  2.88875473E-01  1.000000

  9 P  1.00568237E-01  1.000000

 10 D  1.09700000E+00  1.000000

 11 D  3.18000000E-01  1.000000

 12 D  9.09853364E-02  1.000000

 13 F  7.61000000E-01  1.000000

  H (Hydrogen)
  ------------
            Exponent  Coefficients 
       -------------- ---------------------------------------------------------
  1 S  3.40613410E+01  0.006025
  1 S  5.12357460E+00  0.045021
  1 S  1.16466260E+00  0.201897

  2 S  3.27230410E-01  1.000000

  3 S  1.03072410E-01  1.000000

  4 P  8.00000000E-01  1.000000

  5 P  9.57741296E-02  1.000000



 Summary of "ao basis" -> "ao basis" (cartesian)
 ------------------------------------------------------------------------------
       Tag                 Description            Shells   Functions and Types
 ---------------- ------------------------------  ------  ---------------------
 S                         def2-TZVPD               16       52   6s6p3d1f
 N                         def2-TZVPD               13       43   6s3p3d1f
 C                         def2-TZVPD               13       43   6s3p3d1f
 H                         def2-TZVPD                5        9   3s2p




 Summary of "ao basis" -> "ao basis" (cartesian)
 ------------------------------------------------------------------------------
       Tag                 Description            Shells   Functions and Types
 ---------------- ------------------------------  ------  ---------------------
 S                         def2-TZVPD               16       52   6s6p3d1f
 N                         def2-TZVPD               13       43   6s3p3d1f
 C                         def2-TZVPD               13       43   6s3p3d1f
 H                         def2-TZVPD                5        9   3s2p


  int_init: cando_txs set to always be  F
  Caching 1-el integrals 

            General Information
            -------------------
          SCF calculation type: DFT
          Wavefunction type:  closed shell.
          No. of atoms     :    13
          No. of electrons :    70
           Alpha electrons :    35
            Beta electrons :    35
          Charge           :     0
          Spin multiplicity:     1
          Use of symmetry is: off; symmetry adaption is: off
          Maximum number of iterations:  50
          AO basis - number of functions:   432
                     number of shells:   140
          Convergence on energy requested:  1.00D-06
          Convergence on density requested:  1.00D-05
          Convergence on gradient requested:  5.00D-04

              XC Information
              --------------
                     Hartree-Fock (Exact) Exchange  1.000          
                     LC-wPBE(h)Exchange Functional  1.000          
            Perdew 1991 LDA Correlation Functional  1.000 local    
           PerdewBurkeErnz. Correlation Functional  1.000 non-local

           Range-Separation Parameters        
           ---------------------------
           Alpha           :  0.00
           Beta            :  1.00
           Gamma           :  0.27
           Short-Range HF  :     F

             Grid Information
             ----------------
          Grid used for XC integration:  xfine     
          Radial quadrature: Mura-Knowles        
          Angular quadrature: Lebedev. 
          Tag              B.-S. Rad. Rad. Pts. Rad. Cut. Ang. Pts.
          ---              ---------- --------- --------- ---------
          S                   1.00      125          16.0      1454
          N                   0.65      100          14.0      1454
          C                   0.70      100          17.0      1454
          H                   0.35      100          17.0      1202
          Grid pruning is: on 
          Number of quadrature shells:  1325
          Spatial weights used:  Erf1

          Convergence Information
          -----------------------
          Convergence aids based upon iterative change in 
          total energy or number of iterations. 
          Levelshifting, if invoked, occurs when the 
          HOMO/LUMO gap drops below (HL_TOL):  1.00D-02
          DIIS, if invoked, will attempt to extrapolate 
          using up to (NFOCK): 10 stored Fock matrices.

                    Damping( 0%)  Levelshifting(0.5)       DIIS
                  --------------- ------------------- ---------------
          dE  on:    start            ASAP                start   
          dE off:    2 iters         50 iters            50 iters 


      Screening Tolerance Information
      -------------------------------
          Density screening/tol_rho:  1.00D-10
          AO Gaussian exp screening on grid/accAOfunc:  14
          CD Gaussian exp screening on grid/accCDfunc:  20
          XC Gaussian exp screening on grid/accXCfunc:  20
          Schwarz screening/accCoul:  1.00D-08

  
  CAM type calculations without CDFIT are
  only available with the direct option.
  Forcing Direct SCF
  

 WARNING : Found    11 linear dependencies 
 S eigenvalue threshold:     1.00000E-05
 Smallest S eigenvalue :     2.07696E-08
 Largest  S eigenvalue :     8.96586E-06


 !! The overlap matrix has  11 vectors deemed linearly dependent with
    eigenvalues:
 2.08D-08 5.40D-07 1.02D-06 1.05D-06 1.47D-06 2.21D-06 2.21D-06 5.42D-06
 5.78D-06 6.90D-06 8.97D-06


      Superposition of Atomic Density Guess
      -------------------------------------

 Sum of atomic energies:        -734.13001370

      Non-variational initial energy
      ------------------------------

 Total energy =    -740.109882
 1-e energy   =   -1952.653795
 2-e energy   =     734.543129
 HOMO         =      -0.276479
 LUMO         =      -0.092736

  WARNING: movecs_in_org=atomic not equal to movecs_in=./benzothiadiazole.movecs
   Time after variat. SCF:     15.6
   Time prior to 1st pass:     15.6

 Grid_pts file          = ./benzothiadiazole.gridpts.00
 Record size in doubles =  12289        No. of grid_pts per rec  =   3070
 Max. records in memory =     16        Max. recs in file   =  21109390

 Grid integrated density:      69.987531538945
 Requested integration accuracy:   0.10E-07

           Memory utilization after 1st SCF pass: 
           Heap Space remaining (MW):     7864.24          7864239674
          Stack Space remaining (MW):    13107.20         13107197532

   convergence    iter        energy       DeltaE   RMS-Dens  Diis-err    time
 ---------------- ----- ----------------- --------- --------- ---------  ------
 d= 0,ls=0.0,diis     1   -736.9122376794 -1.21D+03  1.83D+02  5.22D+03    52.1
 Grid integrated density:      70.000017065432
 Requested integration accuracy:   0.10E-07
 d= 0,ls=0.0,diis     2   -717.0141090985  1.99D+01  1.62D+02  1.32D+02    99.4
 Grid integrated density:      70.000009056635
 Requested integration accuracy:   0.10E-07
 d= 0,ls=0.0,diis     3   -733.4526743633 -1.64D+01  8.01D+01  2.89D+01   140.1
 Grid integrated density:      70.000001912596
 Requested integration accuracy:   0.10E-07
 d= 0,ls=0.0,diis     4   -736.4024316337 -2.95D+00  3.04D-01  1.60D+01   177.2
 Grid integrated density:      70.000001582272
 Requested integration accuracy:   0.10E-07
 d= 0,ls=0.0,diis     5   -737.8994001670 -1.50D+00  3.04D-02  4.16D+00   214.9
 Grid integrated density:      70.000001625387
 Requested integration accuracy:   0.10E-07
 d= 0,ls=0.0,diis     6   -738.3041743279 -4.05D-01  6.50D-03  8.96D-01   251.2
 Grid integrated density:      70.000001629849
 Requested integration accuracy:   0.10E-07
 d= 0,ls=0.0,diis     7   -738.3937280061 -8.96D-02  2.30D-03  1.01D-01   290.9
 Grid integrated density:      70.000001694931
 Requested integration accuracy:   0.10E-07
  Resetting Diis
 d= 0,ls=0.0,diis     8   -738.4041845221 -1.05D-02  6.43D-04  9.78D-03   326.6
 d= 0,ls=0.0,diis     9   -738.4055976990 -1.41D-03  2.01D-03  8.59D-04   364.9
 d= 0,ls=0.0,diis    10   -738.4058794354 -2.82D-04  1.40D-04  6.32D-04   402.3
 d= 0,ls=0.0,diis    11   -738.4059927498 -1.13D-04  2.07D-04  9.09D-05   440.6
 d= 0,ls=0.0,diis    12   -738.4060549246 -6.22D-05  2.08D-05  1.39D-05   476.8
 d= 0,ls=0.0,diis    13   -738.4060642344 -9.31D-06  3.57D-05  2.75D-06   515.3
 d= 0,ls=0.0,diis    14   -738.4060652839 -1.05D-06  1.11D-05  6.83D-07   554.4
 d= 0,ls=0.0,diis    15   -738.4060653933 -1.09D-07  1.62D-06  5.15D-08   594.2


         Total DFT energy =     -738.406065393278
      One electron energy =    -1957.967826276922
           Coulomb energy =      814.672334155358
    Exchange-Corr. energy =      -73.111356402661
 Nuclear repulsion energy =      478.000783130947

 Numeric. integr. density =       70.000000410146

     Total iterative time =    578.6s



                       DFT Final Molecular Orbital Analysis
                       ------------------------------------

 Vector    1  Occ=2.000000D+00  E=-8.828843D+01
              MO Center=  3.9D-10,  4.7D-14,  2.3D+00, r^2= 3.6D-03
   Bfn.  Coefficient  Atom+Function         Bfn.  Coefficient  Atom+Function  
  ----- ------------  ---------------      ----- ------------  ---------------
     1      0.999361   1 S  s                 2     -0.033413   1 S  s         
     4      0.027674   1 S  s                 5      0.025645   1 S  s         

 Vector    2  Occ=2.000000D+00  E=-1.418057D+01
              MO Center=  1.2D+00,  4.1D-11,  1.2D+00, r^2= 9.7D-02
   Bfn.  Coefficient  Atom+Function         Bfn.  Coefficient  Atom+Function  
  ----- ------------  ---------------      ----- ------------  ---------------
    54      0.615514   2 N  s                53      0.446669   2 N  s         
    56     -0.109981   2 N  s                55      0.097857   2 N  s         
    97     -0.068712   3 N  s                96     -0.049862   3 N  s         

 Vector    3  Occ=2.000000D+00  E=-1.418050D+01
              MO Center= -1.2D+00, -4.4D-11,  1.2D+00, r^2= 9.7D-02
   Bfn.  Coefficient  Atom+Function         Bfn.  Coefficient  Atom+Function  
  ----- ------------  ---------------      ----- ------------  ---------------
    97      0.615514   3 N  s                96      0.446669   3 N  s         
    99     -0.109764   3 N  s                98      0.097868   3 N  s         
    54      0.068712   2 N  s                53      0.049865   2 N  s         

 Vector    4  Occ=2.000000D+00  E=-1.009740D+01
              MO Center=  1.7D-02, -9.2D-13, -1.3D-02, r^2= 5.4D-01
   Bfn.  Coefficient  Atom+Function         Bfn.  Coefficient  Atom+Function  
  ----- ------------  ---------------      ----- ------------  ---------------
   140      0.428801   4 C  s               183      0.418836   5 C  s         
   139      0.334827   4 C  s               182      0.327046   5 C  s         
   141      0.073428   4 C  s               142     -0.073127   4 C  s         
   184      0.071727   5 C  s               185     -0.071473   5 C  s         

 Vector    5  Occ=2.000000D+00  E=-1.009711D+01
              MO Center= -1.7D-02, -6.5D-13, -1.3D-02, r^2= 5.4D-01
   Bfn.  Coefficient  Atom+Function         Bfn.  Coefficient  Atom+Function  
  ----- ------------  ---------------      ----- ------------  ---------------
   183     -0.428857   5 C  s               140      0.418893   4 C  s         
   182     -0.334866   5 C  s               139      0.327086   4 C  s         
   184     -0.073180   5 C  s               141      0.071474   4 C  s         
   185      0.071230   5 C  s               142     -0.069530   4 C  s         

 Vector    6  Occ=2.000000D+00  E=-1.006496D+01
              MO Center= -4.6D-02,  9.9D-11, -2.4D+00, r^2= 6.1D-01
   Bfn.  Coefficient  Atom+Function         Bfn.  Coefficient  Atom+Function  
  ----- ------------  ---------------      ----- ------------  ---------------
   355      0.431439   9 C  s               312      0.405129   8 C  s         
   354      0.336882   9 C  s               311      0.316338   8 C  s         
   356      0.074285   9 C  s               357     -0.074004   9 C  s         
   313      0.069791   8 C  s               314     -0.069547   8 C  s         
   269      0.069148   7 C  s               226      0.065156   6 C  s         

 Vector    7  Occ=2.000000D+00  E=-1.006467D+01
              MO Center=  4.7D-02,  1.1D-10, -2.4D+00, r^2= 6.4D-01
   Bfn.  Coefficient  Atom+Function         Bfn.  Coefficient  Atom+Function  
  ----- ------------  ---------------      ----- ------------  ---------------
   312      0.428579   8 C  s               355     -0.402546   9 C  s         
   311      0.334654   8 C  s               354     -0.314326   9 C  s         
   226      0.085321   6 C  s               269     -0.079794   7 C  s         
   313      0.073220   8 C  s               314     -0.072669   8 C  s         
   356     -0.068736   9 C  s               357      0.068197   9 C  s         

 Vector    8  Occ=2.000000D+00  E=-1.006327D+01
              MO Center=  1.3D+00,  1.2D-11, -1.3D+00, r^2= 3.4D-01
   Bfn.  Coefficient  Atom+Function         Bfn.  Coefficient  Atom+Function  
  ----- ------------  ---------------      ----- ------------  ---------------
   226      0.579415   6 C  s               225      0.452455   6 C  s         
   312     -0.107064   8 C  s               269     -0.105976   7 C  s         
   227      0.099434   6 C  s               228     -0.098297   6 C  s         
   311     -0.083616   8 C  s               268     -0.082760   7 C  s         
   355      0.029956   9 C  s         

 Vector    9  Occ=2.000000D+00  E=-1.006326D+01
              MO Center= -1.3D+00,  1.9D-10, -1.3D+00, r^2= 3.4D-01
   Bfn.  Coefficient  Atom+Function         Bfn.  Coefficient  Atom+Function  
  ----- ------------  ---------------      ----- ------------  ---------------
   269      0.580446   7 C  s               268      0.453257   7 C  s         
   226      0.109769   6 C  s               355     -0.101348   9 C  s         
   270      0.099644   7 C  s               271     -0.098793   7 C  s         
   225      0.085711   6 C  s               354     -0.079151   9 C  s         

 Vector   10  Occ=2.000000D+00  E=-7.909055D+00
              MO Center=  3.0D-07,  1.2D-11,  2.2D+00, r^2= 7.7D-02
   Bfn.  Coefficient  Atom+Function         Bfn.  Coefficient  Atom+Function  
  ----- ------------  ---------------      ----- ------------  ---------------
     3      0.800049   1 S  s                 1     -0.287899   1 S  s         
     2     -0.237982   1 S  s                 5      0.035249   1 S  s         
     4      0.034665   1 S  s                 6      0.032920   1 S  s         

 Vector   11  Occ=2.000000D+00  E=-5.929486D+00
              MO Center= -2.5D-07,  2.7D-11,  2.3D+00, r^2= 6.9D-02
   Bfn.  Coefficient  Atom+Function         Bfn.  Coefficient  Atom+Function  
  ----- ------------  ---------------      ----- ------------  ---------------
     7      0.713917   1 S  px               10      0.339090   1 S  px        
    13      0.063473   1 S  px               16      0.049597   1 S  px        
    46     -0.027741   1 S  fxyy             43     -0.026769   1 S  fxxx      
    48     -0.026482   1 S  fxzz      

 Vector   12  Occ=2.000000D+00  E=-5.922580D+00
              MO Center=  2.8D-08, -6.7D-10,  2.3D+00, r^2= 6.9D-02
   Bfn.  Coefficient  Atom+Function         Bfn.  Coefficient  Atom+Function  
  ----- ------------  ---------------      ----- ------------  ---------------
     9      0.714274   1 S  pz               12      0.338699   1 S  pz        
    15      0.063727   1 S  pz               18      0.047961   1 S  pz        
    52     -0.027199   1 S  fzzz             50     -0.027008   1 S  fyyz      
    45     -0.025845   1 S  fxxz      

 Vector   13  Occ=2.000000D+00  E=-5.921857D+00
              MO Center=  2.2D-08,  5.8D-10,  2.3D+00, r^2= 6.9D-02
   Bfn.  Coefficient  Atom+Function         Bfn.  Coefficient  Atom+Function  
  ----- ------------  ---------------      ----- ------------  ---------------
     8      0.714341   1 S  py               11      0.339081   1 S  py        
    14      0.066337   1 S  py               17      0.034097   1 S  py        

 Vector   14  Occ=2.000000D+00  E=-1.101079D+00
              MO Center=  1.9D-04, -6.6D-11,  1.1D+00, r^2= 1.5D+00
   Bfn.  Coefficient  Atom+Function         Bfn.  Coefficient  Atom+Function  
  ----- ------------  ---------------      ----- ------------  ---------------
     4      0.276357   1 S  s                 3     -0.206759   1 S  s         
    56      0.190400   2 N  s                99      0.190345   3 N  s         
    55      0.159750   2 N  s                98      0.159697   3 N  s         
   141      0.121677   4 C  s               184      0.121656   5 C  s         
   142      0.116313   4 C  s               185      0.116294   5 C  s         

 Vector   15  Occ=2.000000D+00  E=-9.728447D-01
              MO Center= -1.6D-04, -1.8D-10,  8.9D-01, r^2= 2.0D+00
   Bfn.  Coefficient  Atom+Function         Bfn.  Coefficient  Atom+Function  
  ----- ------------  ---------------      ----- ------------  ---------------
    56      0.233001   2 N  s                99     -0.233017   3 N  s         
    55      0.213170   2 N  s                98     -0.213182   3 N  s         
    54     -0.139108   2 N  s                97      0.139120   3 N  s         
   142      0.117360   4 C  s               185     -0.117403   5 C  s         
   141      0.116497   4 C  s               184     -0.116541   5 C  s         

 Vector   16  Occ=2.000000D+00  E=-9.501092D-01
              MO Center=  5.2D-05, -1.7D-09, -1.1D+00, r^2= 2.9D+00
   Bfn.  Coefficient  Atom+Function         Bfn.  Coefficient  Atom+Function  
  ----- ------------  ---------------      ----- ------------  ---------------
     4      0.171553   1 S  s               313     -0.153769   8 C  s         
   356     -0.153770   9 C  s               227     -0.146134   6 C  s         
   270     -0.146121   7 C  s               314     -0.133828   8 C  s         
   357     -0.133828   9 C  s                 3     -0.123295   1 S  s         
   228     -0.117183   6 C  s               271     -0.117168   7 C  s         

 Vector   17  Occ=2.000000D+00  E=-8.511423D-01
              MO Center= -4.0D-05, -7.6D-10, -2.3D-01, r^2= 4.8D+00
   Bfn.  Coefficient  Atom+Function         Bfn.  Coefficient  Atom+Function  
  ----- ------------  ---------------      ----- ------------  ---------------
     4      0.369236   1 S  s                 3     -0.245981   1 S  s         
   142     -0.171702   4 C  s               185     -0.171631   5 C  s         
   313      0.155744   8 C  s               356      0.155852   9 C  s         
   141     -0.143898   4 C  s               184     -0.143841   5 C  s         
   314      0.137765   8 C  s               357      0.137871   9 C  s         

 Vector   18  Occ=2.000000D+00  E=-8.459446D-01
              MO Center=  8.3D-05, -2.1D-09, -1.2D+00, r^2= 3.4D+00
   Bfn.  Coefficient  Atom+Function         Bfn.  Coefficient  Atom+Function  
  ----- ------------  ---------------      ----- ------------  ---------------
   227      0.208350   6 C  s               270     -0.208340   7 C  s         
   228      0.181064   6 C  s               271     -0.181055   7 C  s         
   226     -0.126171   6 C  s               269      0.126165   7 C  s         
   313      0.117950   8 C  s               356     -0.117819   9 C  s         
   314      0.116677   8 C  s               357     -0.116561   9 C  s         

 Vector   19  Occ=2.000000D+00  E=-7.389380D-01
              MO Center=  1.2D-05, -4.9D-10, -4.9D-01, r^2= 5.4D+00
   Bfn.  Coefficient  Atom+Function         Bfn.  Coefficient  Atom+Function  
  ----- ------------  ---------------      ----- ------------  ---------------
     4      0.353347   1 S  s                 3     -0.222931   1 S  s         
   314     -0.140976   8 C  s               357     -0.140980   9 C  s         
   147     -0.139526   4 C  pz              190     -0.139525   5 C  pz        
   228      0.135537   6 C  s               271      0.135534   7 C  s         
   227      0.123252   6 C  s               270      0.123256   7 C  s         

 Vector   20  Occ=2.000000D+00  E=-7.041797D-01
              MO Center=  2.7D-05, -3.6D-10, -5.4D-01, r^2= 4.9D+00
   Bfn.  Coefficient  Atom+Function         Bfn.  Coefficient  Atom+Function  
  ----- ------------  ---------------      ----- ------------  ---------------
   142      0.182168   4 C  s               185     -0.182217   5 C  s         
   233      0.142437   6 C  pz              276     -0.142434   7 C  pz        
   313     -0.142541   8 C  s               356      0.142520   9 C  s         
   314     -0.127161   8 C  s               357      0.127136   9 C  s         
    61     -0.125257   2 N  pz              104      0.125246   3 N  pz        

 Vector   21  Occ=2.000000D+00  E=-6.966372D-01
              MO Center= -2.1D-06, -4.2D-10, -4.2D-01, r^2= 3.6D+00
   Bfn.  Coefficient  Atom+Function         Bfn.  Coefficient  Atom+Function  
  ----- ------------  ---------------      ----- ------------  ---------------
   145      0.187722   4 C  px              188     -0.187757   5 C  px        
   228      0.152726   6 C  s               271      0.152724   7 C  s         
     4     -0.137943   1 S  s                56      0.120732   2 N  s         
    99      0.120699   3 N  s               227      0.111440   6 C  s         
   270      0.111449   7 C  s               142     -0.105744   4 C  s         

 Vector   22  Occ=2.000000D+00  E=-5.986408D-01
              MO Center= -2.9D-05, -5.0D-10, -3.8D-01, r^2= 5.9D+00
   Bfn.  Coefficient  Atom+Function         Bfn.  Coefficient  Atom+Function  
  ----- ------------  ---------------      ----- ------------  ---------------
    61      0.181761   2 N  pz              104     -0.181744   3 N  pz        
   314     -0.149529   8 C  s               357      0.149519   9 C  s         
   228      0.128222   6 C  s               271     -0.128212   7 C  s         
   147     -0.125673   4 C  pz              190      0.125704   5 C  pz        
    13      0.122866   1 S  px               16      0.120368   1 S  px        

 Vector   23  Occ=2.000000D+00  E=-5.953661D-01
              MO Center=  1.2D-04, -4.6D-10, -8.0D-01, r^2= 4.5D+00
   Bfn.  Coefficient  Atom+Function         Bfn.  Coefficient  Atom+Function  
  ----- ------------  ---------------      ----- ------------  ---------------
   317     -0.163078   8 C  px              360      0.163051   9 C  px        
   145      0.152116   4 C  px              188     -0.152126   5 C  px        
   233      0.106160   6 C  pz              276      0.106121   7 C  pz        
   231     -0.100921   6 C  px              274      0.100926   7 C  px        
   320     -0.100627   8 C  px              363      0.100614   9 C  px        

 Vector   24  Occ=2.000000D+00  E=-5.744965D-01
              MO Center= -2.6D-05, -3.5D-10, -1.4D+00, r^2= 5.0D+00
   Bfn.  Coefficient  Atom+Function         Bfn.  Coefficient  Atom+Function  
  ----- ------------  ---------------      ----- ------------  ---------------
     4      0.227995   1 S  s               319     -0.214292   8 C  pz        
   362     -0.214289   9 C  pz              233      0.153018   6 C  pz        
   276      0.153033   7 C  pz                3     -0.119235   1 S  s         
   322     -0.118583   8 C  pz              365     -0.118586   9 C  pz        
    18      0.112422   1 S  pz              325     -0.112792   8 C  pz        

 Vector   25  Occ=2.000000D+00  E=-5.587693D-01
              MO Center=  1.5D-04,  1.4D-09,  7.2D-01, r^2= 2.8D+00
   Bfn.  Coefficient  Atom+Function         Bfn.  Coefficient  Atom+Function  
  ----- ------------  ---------------      ----- ------------  ---------------
    17      0.221206   1 S  py               60      0.169311   2 N  py        
   103      0.169262   3 N  py              146      0.166237   4 C  py        
   189      0.166216   5 C  py               63      0.146962   2 N  py        
   106      0.146921   3 N  py              149      0.134750   4 C  py        
   192      0.134732   5 C  py               14      0.105348   1 S  py        

 Vector   26  Occ=2.000000D+00  E=-5.400060D-01
              MO Center= -3.3D-06,  1.2D-10, -1.1D+00, r^2= 4.3D+00
   Bfn.  Coefficient  Atom+Function         Bfn.  Coefficient  Atom+Function  
  ----- ------------  ---------------      ----- ------------  ---------------
   231      0.243465   6 C  px              274      0.243461   7 C  px        
   398      0.167878  10 H  s               407     -0.167875  11 H  s         
   237      0.135932   6 C  px              280      0.135926   7 C  px        
   234      0.128916   6 C  px              277      0.128913   7 C  px        
   397      0.121557  10 H  s               406     -0.121555  11 H  s         

 Vector   27  Occ=2.000000D+00  E=-4.811915D-01
              MO Center=  7.3D-05,  4.8D-10, -1.2D+00, r^2= 5.3D+00
   Bfn.  Coefficient  Atom+Function         Bfn.  Coefficient  Atom+Function  
  ----- ------------  ---------------      ----- ------------  ---------------
   317      0.237538   8 C  px              360     -0.237540   9 C  px        
   323      0.141202   8 C  px              366     -0.141202   9 C  px        
   320      0.139866   8 C  px              363     -0.139869   9 C  px        
   231     -0.119914   6 C  px              274      0.119929   7 C  px        
    59      0.111700   2 N  px              102     -0.111639   3 N  px        

 Vector   28  Occ=2.000000D+00  E=-4.705062D-01
              MO Center=  5.4D-04,  3.6D-10, -1.8D+00, r^2= 3.9D+00
   Bfn.  Coefficient  Atom+Function         Bfn.  Coefficient  Atom+Function  
  ----- ------------  ---------------      ----- ------------  ---------------
   319      0.211166   8 C  pz              362     -0.211075   9 C  pz        
   233     -0.190076   6 C  pz              276      0.189982   7 C  pz        
   416     -0.154405  12 H  s               425      0.154358  13 H  s         
   325      0.134168   8 C  pz              368     -0.134154   9 C  pz        
   322      0.126928   8 C  pz              365     -0.126872   9 C  pz        

 Vector   29  Occ=2.000000D+00  E=-4.666418D-01
              MO Center= -5.8D-04,  5.5D-09,  1.6D+00, r^2= 3.6D+00
   Bfn.  Coefficient  Atom+Function         Bfn.  Coefficient  Atom+Function  
  ----- ------------  ---------------      ----- ------------  ---------------
     4      0.282781   1 S  s                18      0.253624   1 S  pz        
    21      0.198349   1 S  pz               61     -0.190744   2 N  pz        
   104     -0.190871   3 N  pz               15      0.185745   1 S  pz        
     3     -0.163668   1 S  s               147      0.138203   4 C  pz        
   190      0.138370   5 C  pz                9     -0.135333   1 S  pz        

 Vector   30  Occ=2.000000D+00  E=-4.619278D-01
              MO Center=  8.2D-08, -1.8D-09, -8.3D-01, r^2= 5.0D+00
   Bfn.  Coefficient  Atom+Function         Bfn.  Coefficient  Atom+Function  
  ----- ------------  ---------------      ----- ------------  ---------------
    17      0.232292   1 S  py              318     -0.186381   8 C  py        
   361     -0.186391   9 C  py              321     -0.162729   8 C  py        
   364     -0.162736   9 C  py              232     -0.147048   6 C  py        
   275     -0.147062   7 C  py              235     -0.124765   6 C  py        
   278     -0.124778   7 C  py               20      0.120570   1 S  py        

 Vector   31  Occ=2.000000D+00  E=-4.309098D-01
              MO Center= -8.2D-05,  1.9D-09,  4.0D-01, r^2= 3.3D+00
   Bfn.  Coefficient  Atom+Function         Bfn.  Coefficient  Atom+Function  
  ----- ------------  ---------------      ----- ------------  ---------------
    60      0.229854   2 N  py              103     -0.229880   3 N  py        
    63      0.207465   2 N  py              106     -0.207490   3 N  py        
   146      0.154479   4 C  py              189     -0.154496   5 C  py        
   149      0.128637   4 C  py              192     -0.128648   5 C  py        
   232      0.121973   6 C  py              275     -0.121954   7 C  py        

 Vector   32  Occ=2.000000D+00  E=-4.099214D-01
              MO Center=  1.0D-03,  1.8D-10,  2.5D-01, r^2= 4.4D+00
   Bfn.  Coefficient  Atom+Function         Bfn.  Coefficient  Atom+Function  
  ----- ------------  ---------------      ----- ------------  ---------------
   145      0.208593   4 C  px              188     -0.208604   5 C  px        
    59     -0.162998   2 N  px              102      0.162626   3 N  px        
   148      0.141510   4 C  px              191     -0.141484   5 C  px        
    18     -0.128262   1 S  pz              151      0.126008   4 C  px        
   194     -0.125897   5 C  px               62     -0.123203   2 N  px        

 Vector   33  Occ=2.000000D+00  E=-3.917359D-01
              MO Center= -1.2D-03, -1.7D-09,  1.2D+00, r^2= 3.1D+00
   Bfn.  Coefficient  Atom+Function         Bfn.  Coefficient  Atom+Function  
  ----- ------------  ---------------      ----- ------------  ---------------
    59      0.299062   2 N  px              102      0.299282   3 N  px        
    58      0.233936   2 N  s               101     -0.234091   3 N  s         
    62      0.217859   2 N  px              105      0.218025   3 N  px        
    65      0.170562   2 N  px              108      0.170706   3 N  px        
    57      0.163049   2 N  s               100     -0.163095   3 N  s         

 Vector   34  Occ=2.000000D+00  E=-3.498244D-01
              MO Center=  2.3D-05,  6.0D-10,  7.3D-02, r^2= 5.1D+00
   Bfn.  Coefficient  Atom+Function         Bfn.  Coefficient  Atom+Function  
  ----- ------------  ---------------      ----- ------------  ---------------
    17      0.329391   1 S  py               20      0.215992   1 S  py        
   146     -0.193417   4 C  py              189     -0.193404   5 C  py        
   149     -0.167944   4 C  py              192     -0.167929   5 C  py        
   318      0.165766   8 C  py              361      0.165766   9 C  py        
    14      0.162666   1 S  py              321      0.144848   8 C  py        

 Vector   35  Occ=2.000000D+00  E=-3.329073D-01
              MO Center= -7.3D-05,  3.5D-09, -7.7D-01, r^2= 4.5D+00
   Bfn.  Coefficient  Atom+Function         Bfn.  Coefficient  Atom+Function  
  ----- ------------  ---------------      ----- ------------  ---------------
   232      0.220138   6 C  py              275     -0.220151   7 C  py        
   235      0.192060   6 C  py              278     -0.192073   7 C  py        
    60     -0.173156   2 N  py              103      0.173170   3 N  py        
    63     -0.155839   2 N  py              106      0.155853   3 N  py        
   318      0.142754   8 C  py              361     -0.142743   9 C  py        

 Vector   36  Occ=0.000000D+00  E=-3.086617D-02
              MO Center=  6.6D-05, -6.8D-09,  3.7D-01, r^2= 5.7D+00
   Bfn.  Coefficient  Atom+Function         Bfn.  Coefficient  Atom+Function  
  ----- ------------  ---------------      ----- ------------  ---------------
    17      0.279222   1 S  py               20      0.275158   1 S  py        
    60     -0.216417   2 N  py              103     -0.216398   3 N  py        
    63     -0.204255   2 N  py              106     -0.204241   3 N  py        
   232      0.148699   6 C  py              275      0.148686   7 C  py        
   235      0.141408   6 C  py              278      0.141397   7 C  py        

 Vector   37  Occ=0.000000D+00  E= 5.357348D-02
              MO Center=  5.6D-04, -9.6D-09, -2.3D+00, r^2= 1.6D+01
   Bfn.  Coefficient  Atom+Function         Bfn.  Coefficient  Atom+Function  
  ----- ------------  ---------------      ----- ------------  ---------------
     6      7.404799   1 S  s                 5     -4.138122   1 S  s         
   230      3.021238   6 C  s               273      3.019727   7 C  s         
   144     -2.647572   4 C  s               187     -2.646582   5 C  s         
   316      2.331030   8 C  s               359      2.331139   9 C  s         
    37     -1.600199   1 S  dxx              40     -1.535690   1 S  dyy       

 Vector   38  Occ=0.000000D+00  E= 5.453844D-02
              MO Center=  5.9D-04,  5.3D-09,  4.8D+00, r^2= 9.3D+00
   Bfn.  Coefficient  Atom+Function         Bfn.  Coefficient  Atom+Function  
  ----- ------------  ---------------      ----- ------------  ---------------
   144     -4.724106   4 C  s               187     -4.724888   5 C  s         
     5      4.590860   1 S  s                 6      2.375608   1 S  s         
    24     -2.383853   1 S  pz               21     -1.861609   1 S  pz        
   417      1.772193  12 H  s               426      1.772602  13 H  s         
   168      1.675398   4 C  dxz             211     -1.675750   5 C  dxz       

 Vector   39  Occ=0.000000D+00  E= 5.775381D-02
              MO Center= -7.9D-04,  3.1D-09,  2.8D+00, r^2= 1.3D+01
   Bfn.  Coefficient  Atom+Function         Bfn.  Coefficient  Atom+Function  
  ----- ------------  ---------------      ----- ------------  ---------------
    58      3.914851   2 N  s               101     -3.914808   3 N  s         
   230     -2.023699   6 C  s               273      2.024214   7 C  s         
   144      1.862750   4 C  s               187     -1.861734   5 C  s         
    22     -1.810217   1 S  px               19     -1.482966   1 S  px        
   254      1.462113   6 C  dxz             297      1.462253   7 C  dxz       

 Vector   40  Occ=0.000000D+00  E= 6.286065D-02
              MO Center=  6.0D-05, -1.3D-09, -1.1D+00, r^2= 4.7D+00
   Bfn.  Coefficient  Atom+Function         Bfn.  Coefficient  Atom+Function  
  ----- ------------  ---------------      ----- ------------  ---------------
   152      0.487076   4 C  py              195     -0.487329   5 C  py        
   167     -0.300915   4 C  dxy             210     -0.299988   5 C  dxy       
   253      0.254355   6 C  dxy             296      0.254927   7 C  dxy       
   321     -0.239443   8 C  py              364      0.239836   9 C  py        
   318     -0.221944   8 C  py              361      0.222297   9 C  py        

 Vector   41  Occ=0.000000D+00  E= 6.436992D-02
              MO Center= -7.5D-05, -4.8D-09, -4.7D-01, r^2= 5.4D+00
   Bfn.  Coefficient  Atom+Function         Bfn.  Coefficient  Atom+Function  
  ----- ------------  ---------------      ----- ------------  ---------------
   167      0.257206   4 C  dxy             210     -0.258297   5 C  dxy       
   235      0.221043   6 C  py              278      0.220853   7 C  py        
   232      0.197383   6 C  py              275      0.197170   7 C  py        
   170     -0.174740   4 C  dyz             213     -0.175019   5 C  dyz       
    41     -0.167395   1 S  dyz             149     -0.167080   4 C  py        

 Vector   42  Occ=0.000000D+00  E= 7.468328D-02
              MO Center=  5.1D-05, -1.8D-09, -1.8D+00, r^2= 1.8D+01
   Bfn.  Coefficient  Atom+Function         Bfn.  Coefficient  Atom+Function  
  ----- ------------  ---------------      ----- ------------  ---------------
   230      5.112072   6 C  s               273     -5.108120   7 C  s         
   316      3.908879   8 C  s               359     -3.913012   9 C  s         
   144     -3.837129   4 C  s               187      3.836377   5 C  s         
   417      1.763146  12 H  s               426     -1.762646  13 H  s         
   343     -1.404586   8 C  dzz             386      1.405569   9 C  dzz       

 Vector   43  Occ=0.000000D+00  E= 7.531621D-02
              MO Center= -1.8D-05,  1.4D-07, -9.9D-01, r^2= 1.9D+01
   Bfn.  Coefficient  Atom+Function         Bfn.  Coefficient  Atom+Function  
  ----- ------------  ---------------      ----- ------------  ---------------
     6     10.030907   1 S  s                 5     -4.053192   1 S  s         
   316     -4.033609   8 C  s               359     -4.030111   9 C  s         
   230      3.665209   6 C  s               273      3.669771   7 C  s         
    58     -2.352678   2 N  s               101     -2.353063   3 N  s         
    40     -2.008528   1 S  dyy              42     -1.931852   1 S  dzz       

 Vector   44  Occ=0.000000D+00  E= 7.871612D-02
              MO Center=  3.2D-05, -1.0D-07,  2.4D+00, r^2= 1.5D+01
   Bfn.  Coefficient  Atom+Function         Bfn.  Coefficient  Atom+Function  
  ----- ------------  ---------------      ----- ------------  ---------------
    23      1.386387   1 S  py              170     -0.977990   4 C  dyz       
   213     -0.977977   5 C  dyz             253      0.725562   6 C  dxy       
   296     -0.725613   7 C  dxy             238     -0.626891   6 C  py        
   281     -0.626855   7 C  py               41     -0.324740   1 S  dyz       
    66      0.300332   2 N  py              109      0.300343   3 N  py        

 Vector   45  Occ=0.000000D+00  E= 9.935101D-02
              MO Center=  2.9D-05,  1.5D-09,  1.1D+00, r^2= 1.9D+01
   Bfn.  Coefficient  Atom+Function         Bfn.  Coefficient  Atom+Function  
  ----- ------------  ---------------      ----- ------------  ---------------
   316      6.773177   8 C  s               359     -6.769913   9 C  s         
    58      5.461872   2 N  s               101     -5.463394   3 N  s         
   144     -1.872086   4 C  s               187      1.876133   5 C  s         
    22     -1.727733   1 S  px              254      1.580165   6 C  dxz       
   297      1.581214   7 C  dxz              39      1.429169   1 S  dxz       

 Vector   46  Occ=0.000000D+00  E= 1.001272D-01
              MO Center= -5.6D-05, -9.1D-09, -1.5D+00, r^2= 1.9D+01
   Bfn.  Coefficient  Atom+Function         Bfn.  Coefficient  Atom+Function  
  ----- ------------  ---------------      ----- ------------  ---------------
   230     10.366598   6 C  s               273     10.366903   7 C  s         
   144     -6.158993   4 C  s               187     -6.157714   5 C  s         
   316     -5.304816   8 C  s               359     -5.306866   9 C  s         
     6     -4.115438   1 S  s                58      2.773011   2 N  s         
   101      2.769241   3 N  s               417     -2.722768  12 H  s         

 Vector   47  Occ=0.000000D+00  E= 1.215299D-01
              MO Center= -2.2D-04,  8.6D-10, -9.8D-01, r^2= 2.5D+01
   Bfn.  Coefficient  Atom+Function         Bfn.  Coefficient  Atom+Function  
  ----- ------------  ---------------      ----- ------------  ---------------
   316     12.813288   8 C  s               359    -12.813978   9 C  s         
   230     -9.836322   6 C  s               273      9.838792   7 C  s         
   168      3.870536   4 C  dxz             211      3.869583   5 C  dxz       
    58     -3.586828   2 N  s               101      3.586159   3 N  s         
   417     -3.186866  12 H  s               426      3.187983  13 H  s         

 Vector   48  Occ=0.000000D+00  E= 1.273825D-01
              MO Center=  1.1D-04,  9.4D-09, -9.4D-01, r^2= 1.5D+01
   Bfn.  Coefficient  Atom+Function         Bfn.  Coefficient  Atom+Function  
  ----- ------------  ---------------      ----- ------------  ---------------
     6     12.262275   1 S  s                 5    -10.098715   1 S  s         
   417     -7.819958  12 H  s               426     -7.819099  13 H  s         
   315      6.480001   8 C  s               358      6.479638   9 C  s         
   399     -4.659239  10 H  s               408     -4.659331  11 H  s         
   229      4.047630   6 C  s               272      4.047193   7 C  s         

 Vector   49  Occ=0.000000D+00  E= 1.437413D-01
              MO Center=  4.9D-05,  3.1D-09,  2.8D+00, r^2= 1.3D+01
   Bfn.  Coefficient  Atom+Function         Bfn.  Coefficient  Atom+Function  
  ----- ------------  ---------------      ----- ------------  ---------------
     6     26.012317   1 S  s                 5     -9.527816   1 S  s         
   144     -8.966737   4 C  s               187     -8.966074   5 C  s         
    40     -4.990788   1 S  dyy              58     -4.687907   2 N  s         
   101     -4.689023   3 N  s                37     -4.320692   1 S  dxx       
   230      4.012744   6 C  s               273      4.011685   7 C  s         

 Vector   50  Occ=0.000000D+00  E= 1.674682D-01
              MO Center=  2.5D-04,  2.9D-08, -5.3D-01, r^2= 1.8D+01
   Bfn.  Coefficient  Atom+Function         Bfn.  Coefficient  Atom+Function  
  ----- ------------  ---------------      ----- ------------  ---------------
   144     27.968230   4 C  s               187    -27.968333   5 C  s         
   399     12.508548  10 H  s               408    -12.508734  11 H  s         
   230     -8.382028   6 C  s               273      8.381932   7 C  s         
   316      7.169832   8 C  s               359     -7.169733   9 C  s         
    58     -5.314467   2 N  s               101      5.317867   3 N  s         

 Vector   51  Occ=0.000000D+00  E= 1.726058D-01
              MO Center= -6.7D-05,  1.2D-08,  3.5D-01, r^2= 1.7D+01
   Bfn.  Coefficient  Atom+Function         Bfn.  Coefficient  Atom+Function  
  ----- ------------  ---------------      ----- ------------  ---------------
    58      9.068280   2 N  s               101      9.064775   3 N  s         
     5      7.930572   1 S  s                 6     -6.096663   1 S  s         
   417      3.936427  12 H  s               426      3.937146  13 H  s         
   171     -2.633644   4 C  dzz             214     -2.633428   5 C  dzz       
   399     -2.556290  10 H  s               408     -2.551024  11 H  s         

 Vector   52  Occ=0.000000D+00  E= 1.800571D-01
              MO Center=  5.8D-03,  9.7D-09, -3.0D+00, r^2= 9.2D+00
   Bfn.  Coefficient  Atom+Function         Bfn.  Coefficient  Atom+Function  
  ----- ------------  ---------------      ----- ------------  ---------------
   256      2.673433   6 C  dyz             299      2.660988   7 C  dyz       
   195     -2.103506   5 C  py              152     -2.092772   4 C  py        
   324      2.013645   8 C  py              367      2.009225   9 C  py        
   167     -1.911545   4 C  dxy             210      1.883115   5 C  dxy       
   339      1.457334   8 C  dxy             382     -1.454868   9 C  dxy       

 Vector   53  Occ=0.000000D+00  E= 1.803316D-01
              MO Center= -5.7D-03, -1.3D-08, -7.5D-01, r^2= 1.1D+01
   Bfn.  Coefficient  Atom+Function         Bfn.  Coefficient  Atom+Function  
  ----- ------------  ---------------      ----- ------------  ---------------
   167      5.648548   4 C  dxy             210      5.657956   5 C  dxy       
   238     -2.733991   6 C  py              281      2.737632   7 C  py        
   299      2.478189   7 C  dyz             256     -2.464806   6 C  dyz       
   170     -2.410413   4 C  dyz             213      2.412678   5 C  dyz       
   152     -2.147678   4 C  py              195      2.137252   5 C  py        

 Vector   54  Occ=0.000000D+00  E= 1.891142D-01
              MO Center=  4.5D-05, -1.0D-08, -1.0D+00, r^2= 1.7D+01
   Bfn.  Coefficient  Atom+Function         Bfn.  Coefficient  Atom+Function  
  ----- ------------  ---------------      ----- ------------  ---------------
   144     13.483592   4 C  s               187     13.483155   5 C  s         
     6    -12.245262   1 S  s               417     -9.925416  12 H  s         
   426     -9.924259  13 H  s               315      7.234048   8 C  s         
   358      7.233666   9 C  s                 5      6.294910   1 S  s         
    57      5.121413   2 N  s               100      5.121792   3 N  s         

 Vector   55  Occ=0.000000D+00  E= 1.955638D-01
              MO Center= -1.6D-04,  3.5D-08, -1.5D+00, r^2= 1.9D+01
   Bfn.  Coefficient  Atom+Function         Bfn.  Coefficient  Atom+Function  
  ----- ------------  ---------------      ----- ------------  ---------------
   417     14.936881  12 H  s               426    -14.937667  13 H  s         
   144    -12.009364   4 C  s               187     12.009647   5 C  s         
   230     10.073742   6 C  s               273    -10.073268   7 C  s         
   399      9.054971  10 H  s               408     -9.055226  11 H  s         
    57      6.352186   2 N  s               100     -6.352109   3 N  s         

 Vector   56  Occ=0.000000D+00  E= 2.118576D-01
              MO Center= -2.9D-05, -3.0D-08, -1.3D+00, r^2= 1.1D+01
   Bfn.  Coefficient  Atom+Function         Bfn.  Coefficient  Atom+Function  
  ----- ------------  ---------------      ----- ------------  ---------------
   167      3.922188   4 C  dxy             210      3.922240   5 C  dxy       
   170     -2.385995   4 C  dyz             213      2.385925   5 C  dyz       
   238     -2.235045   6 C  py              281      2.234876   7 C  py        
   256     -1.931158   6 C  dyz             299      1.931369   7 C  dyz       
   324     -1.751838   8 C  py              367      1.752119   9 C  py        

 Vector   57  Occ=0.000000D+00  E= 2.140881D-01
              MO Center=  5.9D-05, -2.1D-08, -7.4D-01, r^2= 1.9D+01
   Bfn.  Coefficient  Atom+Function         Bfn.  Coefficient  Atom+Function  
  ----- ------------  ---------------      ----- ------------  ---------------
   417     10.736112  12 H  s               426     10.736307  13 H  s         
   399     -8.847727  10 H  s               408     -8.848914  11 H  s         
    58     -6.714840   2 N  s               101     -6.712454   3 N  s         
   166      6.637872   4 C  dxx             209      6.637660   5 C  dxx       
     6      6.417466   1 S  s               257     -6.172020   6 C  dzz       

 Vector   58  Occ=0.000000D+00  E= 2.301658D-01
              MO Center=  2.2D-04,  2.5D-08,  1.4D+00, r^2= 1.6D+01
   Bfn.  Coefficient  Atom+Function         Bfn.  Coefficient  Atom+Function  
  ----- ------------  ---------------      ----- ------------  ---------------
     5     17.407353   1 S  s                 6    -15.567809   1 S  s         
    42      6.113140   1 S  dzz              58      5.154247   2 N  s         
   101      5.150914   3 N  s                37      4.521624   1 S  dxx       
    40      4.430686   1 S  dyy             144     -3.996011   4 C  s         
   187     -3.993011   5 C  s                 4     -3.721109   1 S  s         

 Vector   59  Occ=0.000000D+00  E= 2.305165D-01
              MO Center= -2.9D-05, -5.4D-08,  1.4D+00, r^2= 1.1D+01
   Bfn.  Coefficient  Atom+Function         Bfn.  Coefficient  Atom+Function  
  ----- ------------  ---------------      ----- ------------  ---------------
    41      2.310513   1 S  dyz             238      1.440897   6 C  py        
   281      1.441258   7 C  py              324     -1.154465   8 C  py        
   367     -1.154209   9 C  py               20     -0.819194   1 S  py        
   170      0.797344   4 C  dyz             213      0.797886   5 C  dyz       
   339     -0.709920   8 C  dxy             382      0.710028   9 C  dxy       

 Vector   60  Occ=0.000000D+00  E= 2.423235D-01
              MO Center= -2.4D-04, -2.1D-08,  8.7D-02, r^2= 1.8D+01
   Bfn.  Coefficient  Atom+Function         Bfn.  Coefficient  Atom+Function  
  ----- ------------  ---------------      ----- ------------  ---------------
    58     12.864872   2 N  s               101    -12.865870   3 N  s         
   254      7.230700   6 C  dxz             297      7.230981   7 C  dxz       
   417      4.702840  12 H  s               426     -4.702808  13 H  s         
   166     -4.369287   4 C  dxx             209      4.370725   5 C  dxx       
   151     -3.966645   4 C  px              194     -3.966915   5 C  px        

 Vector   61  Occ=0.000000D+00  E= 2.459911D-01
              MO Center=  2.0D-04,  5.2D-11, -1.4D+00, r^2= 1.6D+01
   Bfn.  Coefficient  Atom+Function         Bfn.  Coefficient  Atom+Function  
  ----- ------------  ---------------      ----- ------------  ---------------
     6     10.190411   1 S  s               230     -7.504573   6 C  s         
   273     -7.503650   7 C  s               417      6.558635  12 H  s         
   426      6.556983  13 H  s                 5     -5.501205   1 S  s         
    57     -4.299500   2 N  s               100     -4.298907   3 N  s         
   315     -4.149762   8 C  s               358     -4.149243   9 C  s         

 Vector   62  Occ=0.000000D+00  E= 2.526214D-01
              MO Center= -3.0D-05, -1.5D-08,  4.9D-01, r^2= 1.6D+01
   Bfn.  Coefficient  Atom+Function         Bfn.  Coefficient  Atom+Function  
  ----- ------------  ---------------      ----- ------------  ---------------
   399     11.377319  10 H  s               408     11.376588  11 H  s         
   230      7.001821   6 C  s               273      7.000917   7 C  s         
     5      6.843646   1 S  s               166     -5.264869   4 C  dxx       
   209     -5.263770   5 C  dxx             257      4.522658   6 C  dzz       
   300      4.522269   7 C  dzz             168      4.323992   4 C  dxz       

 Vector   63  Occ=0.000000D+00  E= 2.532102D-01
              MO Center= -6.9D-05, -7.0D-08, -9.5D-01, r^2= 1.9D+01
   Bfn.  Coefficient  Atom+Function         Bfn.  Coefficient  Atom+Function  
  ----- ------------  ---------------      ----- ------------  ---------------
   144     22.669321   4 C  s               187    -22.670651   5 C  s         
    58    -16.691130   2 N  s               101     16.691964   3 N  s         
   316    -11.583229   8 C  s               359     11.582437   9 C  s         
   417     -9.598297  12 H  s               426      9.598263  13 H  s         
   171      8.407124   4 C  dzz             214     -8.407447   5 C  dzz       

 Vector   64  Occ=0.000000D+00  E= 2.571678D-01
              MO Center=  1.1D-04,  1.7D-08,  1.3D+00, r^2= 9.5D+00
   Bfn.  Coefficient  Atom+Function         Bfn.  Coefficient  Atom+Function  
  ----- ------------  ---------------      ----- ------------  ---------------
    38      1.944613   1 S  dxy             167      1.915902   4 C  dxy       
   210      1.915667   5 C  dxy             152     -1.578921   4 C  py        
   195      1.578983   5 C  py              253     -1.099715   6 C  dxy       
   296     -1.099132   7 C  dxy             170      1.080954   4 C  dyz       
   213     -1.080246   5 C  dyz              66     -0.907396   2 N  py        

 Vector   65  Occ=0.000000D+00  E= 2.637506D-01
              MO Center=  1.3D-04,  7.6D-08, -2.4D+00, r^2= 1.5D+01
   Bfn.  Coefficient  Atom+Function         Bfn.  Coefficient  Atom+Function  
  ----- ------------  ---------------      ----- ------------  ---------------
   230     13.346744   6 C  s               273     13.344473   7 C  s         
   144     -9.114212   4 C  s               187     -9.113076   5 C  s         
   316     -9.081294   8 C  s               359     -9.080039   9 C  s         
     5     -8.869783   1 S  s                 6      7.568402   1 S  s         
   399      4.850101  10 H  s               408      4.851163  11 H  s         

 Vector   66  Occ=0.000000D+00  E= 2.646500D-01
              MO Center=  9.4D-06, -3.7D-08, -5.2D-01, r^2= 1.4D+01
   Bfn.  Coefficient  Atom+Function         Bfn.  Coefficient  Atom+Function  
  ----- ------------  ---------------      ----- ------------  ---------------
   238      2.015523   6 C  py              281      2.015464   7 C  py        
   404     -1.563555  10 H  py              413     -1.563629  11 H  py        
   324     -1.457043   8 C  py              367     -1.456440   9 C  py        
    41     -1.326304   1 S  dyz             339     -1.243602   8 C  dxy       
   382      1.243580   9 C  dxy             253      1.104903   6 C  dxy       

 Vector   67  Occ=0.000000D+00  E= 2.691219D-01
              MO Center= -1.5D-04, -1.0D-08, -1.6D-01, r^2= 1.6D+01
   Bfn.  Coefficient  Atom+Function         Bfn.  Coefficient  Atom+Function  
  ----- ------------  ---------------      ----- ------------  ---------------
   230      7.299704   6 C  s               273     -7.304267   7 C  s         
   171     -4.577303   4 C  dzz             214      4.576358   5 C  dzz       
   144     -4.359977   4 C  s               187      4.363169   5 C  s         
    19      4.290400   1 S  px              340      4.228760   8 C  dxz       
   383      4.228540   9 C  dxz              58      3.832209   2 N  s         

 Vector   68  Occ=0.000000D+00  E= 2.916790D-01
              MO Center=  4.5D-04,  8.0D-08, -1.1D+00, r^2= 1.4D+01
   Bfn.  Coefficient  Atom+Function         Bfn.  Coefficient  Atom+Function  
  ----- ------------  ---------------      ----- ------------  ---------------
   324      3.905305   8 C  py              367     -3.906640   9 C  py        
   167      3.179858   4 C  dxy             210      3.179559   5 C  dxy       
   238     -2.039059   6 C  py              281      2.042488   7 C  py        
   339     -1.967670   8 C  dxy             382     -1.967136   9 C  dxy       
    38     -1.657765   1 S  dxy             342      1.568170   8 C  dyz       

 Vector   69  Occ=0.000000D+00  E= 2.924169D-01
              MO Center= -1.1D-05, -2.4D-07,  2.1D-01, r^2= 2.0D+01
   Bfn.  Coefficient  Atom+Function         Bfn.  Coefficient  Atom+Function  
  ----- ------------  ---------------      ----- ------------  ---------------
   230     13.455906   6 C  s               273    -13.456813   7 C  s         
   316    -12.822904   8 C  s               359     12.823644   9 C  s         
    57     11.199427   2 N  s               100    -11.199985   3 N  s         
   168     -8.919032   4 C  dxz             211     -8.918690   5 C  dxz       
    19     -6.667487   1 S  px               39      5.115690   1 S  dxz       

 Vector   70  Occ=0.000000D+00  E= 2.936048D-01
              MO Center= -5.5D-04, -8.4D-08,  4.8D-01, r^2= 1.3D+01
   Bfn.  Coefficient  Atom+Function         Bfn.  Coefficient  Atom+Function  
  ----- ------------  ---------------      ----- ------------  ---------------
   170      3.776649   4 C  dyz             213      3.777568   5 C  dyz       
   253     -3.046466   6 C  dxy             296      3.045290   7 C  dxy       
   238      2.724236   6 C  py              281      2.721649   7 C  py        
    66     -1.358698   2 N  py              109     -1.359423   3 N  py        
   324     -1.094670   8 C  py              367     -1.089951   9 C  py        

 Vector   71  Occ=0.000000D+00  E= 2.990294D-01
              MO Center=  1.6D-04,  1.0D-08, -4.1D-01, r^2= 1.5D+01
   Bfn.  Coefficient  Atom+Function         Bfn.  Coefficient  Atom+Function  
  ----- ------------  ---------------      ----- ------------  ---------------
     6     22.555195   1 S  s                 5    -19.078821   1 S  s         
   417    -14.176963  12 H  s               426    -14.179322  13 H  s         
   315     11.339987   8 C  s               358     11.340743   9 C  s         
   399     -8.953977  10 H  s               408     -8.949909  11 H  s         
   229      8.147271   6 C  s               272      8.147026   7 C  s         

 Vector   72  Occ=0.000000D+00  E= 3.017940D-01
              MO Center= -3.0D-04,  1.3D-07, -1.7D+00, r^2= 1.6D+01
   Bfn.  Coefficient  Atom+Function         Bfn.  Coefficient  Atom+Function  
  ----- ------------  ---------------      ----- ------------  ---------------
   144     18.486949   4 C  s               187    -18.487942   5 C  s         
   316     14.652443   8 C  s               359    -14.653464   9 C  s         
   171     10.731296   4 C  dzz             214    -10.730887   5 C  dzz       
   230    -10.573092   6 C  s               273     10.573504   7 C  s         
    57     -8.373094   2 N  s               100      8.374140   3 N  s         

 Vector   73  Occ=0.000000D+00  E= 3.030707D-01
              MO Center=  1.7D-04,  7.0D-09, -1.1D-01, r^2= 1.6D+01
   Bfn.  Coefficient  Atom+Function         Bfn.  Coefficient  Atom+Function  
  ----- ------------  ---------------      ----- ------------  ---------------
     6     18.717088   1 S  s               254      5.315774   6 C  dxz       
   297     -5.313935   7 C  dxz              40     -4.914981   1 S  dyy       
   417     -4.903009  12 H  s               426     -4.901133  13 H  s         
   144     -4.866176   4 C  s               187     -4.872512   5 C  s         
     5     -4.283985   1 S  s               323      3.828186   8 C  px        

 Vector   74  Occ=0.000000D+00  E= 3.229412D-01
              MO Center= -1.0D-05, -3.2D-08, -9.3D-01, r^2= 1.6D+01
   Bfn.  Coefficient  Atom+Function         Bfn.  Coefficient  Atom+Function  
  ----- ------------  ---------------      ----- ------------  ---------------
   417      7.584173  12 H  s               426      7.584417  13 H  s         
   399      6.254796  10 H  s               408      6.256063  11 H  s         
   315     -5.982520   8 C  s               358     -5.982671   9 C  s         
     5     -5.576521   1 S  s               237     -4.868404   6 C  px        
   280      4.869092   7 C  px              144     -4.345611   4 C  s         

 Vector   75  Occ=0.000000D+00  E= 3.265208D-01
              MO Center=  1.9D-05,  3.6D-07, -1.2D+00, r^2= 6.6D+00
   Bfn.  Coefficient  Atom+Function         Bfn.  Coefficient  Atom+Function  
  ----- ------------  ---------------      ----- ------------  ---------------
   256     -1.999481   6 C  dyz             299     -1.999179   7 C  dyz       
   152      1.841397   4 C  py              195      1.841378   5 C  py        
   170     -1.594169   4 C  dyz             213     -1.593753   5 C  dyz       
   167      1.186461   4 C  dxy             210     -1.186041   5 C  dxy       
   238     -0.882483   6 C  py              281     -0.882243   7 C  py        

 Vector   76  Occ=0.000000D+00  E= 3.286058D-01
              MO Center=  3.3D-05, -3.4D-07,  8.4D-01, r^2= 1.3D+01
   Bfn.  Coefficient  Atom+Function         Bfn.  Coefficient  Atom+Function  
  ----- ------------  ---------------      ----- ------------  ---------------
     5     13.205549   1 S  s                58    -11.391484   2 N  s         
   101    -11.391560   3 N  s               417      7.669533  12 H  s         
   426      7.670741  13 H  s               315     -4.470555   8 C  s         
   358     -4.470883   9 C  s                 6      3.890039   1 S  s         
   325      3.442237   8 C  pz              368      3.442516   9 C  pz        

 Vector   77  Occ=0.000000D+00  E= 3.353915D-01
              MO Center= -9.8D-05, -5.4D-08, -7.6D-01, r^2= 1.2D+01
   Bfn.  Coefficient  Atom+Function         Bfn.  Coefficient  Atom+Function  
  ----- ------------  ---------------      ----- ------------  ---------------
   144     19.272761   4 C  s               187    -19.272526   5 C  s         
   399     17.487254  10 H  s               408    -17.487399  11 H  s         
   229     -7.876914   6 C  s               272      7.877570   7 C  s         
   237     -7.052749   6 C  px              280     -7.053003   7 C  px        
   417      7.044768  12 H  s               426     -7.046892  13 H  s         

 Vector   78  Occ=0.000000D+00  E= 3.508122D-01
              MO Center= -9.0D-06, -9.7D-09, -9.4D-01, r^2= 1.5D+01
   Bfn.  Coefficient  Atom+Function         Bfn.  Coefficient  Atom+Function  
  ----- ------------  ---------------      ----- ------------  ---------------
   170      5.245016   4 C  dyz             213     -5.245466   5 C  dyz       
   238      3.901419   6 C  py              281     -3.901811   7 C  py        
   152     -3.731359   4 C  py              195      3.731625   5 C  py        
   167      2.703502   4 C  dxy             210      2.703373   5 C  dxy       
   324     -2.311560   8 C  py              367      2.311686   9 C  py        

 Vector   79  Occ=0.000000D+00  E= 3.550018D-01
              MO Center=  1.8D-04,  3.9D-08, -3.9D-01, r^2= 1.7D+01
   Bfn.  Coefficient  Atom+Function         Bfn.  Coefficient  Atom+Function  
  ----- ------------  ---------------      ----- ------------  ---------------
   144     22.885424   4 C  s               187    -22.879097   5 C  s         
   399     12.564008  10 H  s               408    -12.566069  11 H  s         
    58     -7.395223   2 N  s               101      7.395428   3 N  s         
   230     -6.164072   6 C  s               273      6.161792   7 C  s         
   229     -5.614416   6 C  s               272      5.614548   7 C  s         

 Vector   80  Occ=0.000000D+00  E= 3.569976D-01
              MO Center=  8.1D-06,  1.6D-08, -5.6D-01, r^2= 1.4D+01
   Bfn.  Coefficient  Atom+Function         Bfn.  Coefficient  Atom+Function  
  ----- ------------  ---------------      ----- ------------  ---------------
     6     25.056096   1 S  s               144    -17.480200   4 C  s         
   187    -17.485596   5 C  s                 5    -16.348107   1 S  s         
   417     12.606469  12 H  s               426     12.602522  13 H  s         
   315     -8.888536   8 C  s               358     -8.886162   9 C  s         
   168      8.152893   4 C  dxz             211     -8.152534   5 C  dxz       

 Vector   81  Occ=0.000000D+00  E= 3.633196D-01
              MO Center= -2.1D-04,  4.1D-08, -2.0D+00, r^2= 1.1D+01
   Bfn.  Coefficient  Atom+Function         Bfn.  Coefficient  Atom+Function  
  ----- ------------  ---------------      ----- ------------  ---------------
   417     16.665118  12 H  s               426    -16.672497  13 H  s         
   144    -11.862205   4 C  s               187     11.869876   5 C  s         
   323    -10.538166   8 C  px              366    -10.538637   9 C  px        
   254      9.095561   6 C  dxz             297      9.094163   7 C  dxz       
   340      9.086830   8 C  dxz             383      9.087999   9 C  dxz       

 Vector   82  Occ=0.000000D+00  E= 3.703715D-01
              MO Center=  2.0D-04,  4.9D-09, -9.7D-01, r^2= 1.5D+01
   Bfn.  Coefficient  Atom+Function         Bfn.  Coefficient  Atom+Function  
  ----- ------------  ---------------      ----- ------------  ---------------
     6     13.874988   1 S  s               417     10.137166  12 H  s         
   426     10.129192  13 H  s               315     -5.564579   8 C  s         
   358     -5.562133   9 C  s               144     -5.469221   4 C  s         
   187     -5.464396   5 C  s               325      5.491699   8 C  pz        
   368      5.488596   9 C  pz              153      5.184769   4 C  pz        

 Vector   83  Occ=0.000000D+00  E= 3.731418D-01
              MO Center=  1.5D-05,  5.2D-09, -7.9D-02, r^2= 1.1D+01
   Bfn.  Coefficient  Atom+Function         Bfn.  Coefficient  Atom+Function  
  ----- ------------  ---------------      ----- ------------  ---------------
   170      1.946912   4 C  dyz             213      1.947122   5 C  dyz       
    41      1.110999   1 S  dyz              17     -1.104418   1 S  py        
   342      0.987287   8 C  dyz             385      0.987472   9 C  dyz       
    66     -0.630920   2 N  py              109     -0.630892   3 N  py        
   256     -0.576174   6 C  dyz             299     -0.575567   7 C  dyz       

 Vector   84  Occ=0.000000D+00  E= 3.811015D-01
              MO Center=  8.8D-05, -2.0D-07, -9.8D-01, r^2= 1.6D+01
   Bfn.  Coefficient  Atom+Function         Bfn.  Coefficient  Atom+Function  
  ----- ------------  ---------------      ----- ------------  ---------------
   144     18.870772   4 C  s               187    -18.874890   5 C  s         
    57    -10.750310   2 N  s               100     10.748378   3 N  s         
   171      9.281593   4 C  dzz             214     -9.281630   5 C  dzz       
   343      8.362152   8 C  dzz             386     -8.362021   9 C  dzz       
   153      8.045098   4 C  pz              196     -8.044653   5 C  pz        

 Vector   85  Occ=0.000000D+00  E= 3.825682D-01
              MO Center= -1.0D-04, -7.5D-09, -3.0D-01, r^2= 1.2D+01
   Bfn.  Coefficient  Atom+Function         Bfn.  Coefficient  Atom+Function  
  ----- ------------  ---------------      ----- ------------  ---------------
   144      8.093320   4 C  s               187      8.081348   5 C  s         
   254      7.797487   6 C  dxz             297     -7.796167   7 C  dxz       
   230     -7.325788   6 C  s               273     -7.321301   7 C  s         
     6     -6.312768   1 S  s               340      5.630921   8 C  dxz       
   383     -5.632176   9 C  dxz             239      5.265876   6 C  pz        

 Vector   86  Occ=0.000000D+00  E= 3.902345D-01
              MO Center=  9.9D-05, -3.2D-08, -1.6D+00, r^2= 1.2D+01
   Bfn.  Coefficient  Atom+Function         Bfn.  Coefficient  Atom+Function  
  ----- ------------  ---------------      ----- ------------  ---------------
   167      9.304723   4 C  dxy             210      9.304531   5 C  dxy       
   170     -7.748357   4 C  dyz             213      7.747781   5 C  dyz       
   256     -5.871851   6 C  dyz             299      5.871861   7 C  dyz       
   342     -3.078172   8 C  dyz             385      3.078796   9 C  dyz       
   238     -2.596226   6 C  py              281      2.595681   7 C  py        

 Vector   87  Occ=0.000000D+00  E= 4.007592D-01
              MO Center= -1.1D-04,  5.2D-07, -1.0D+00, r^2= 1.5D+01
   Bfn.  Coefficient  Atom+Function         Bfn.  Coefficient  Atom+Function  
  ----- ------------  ---------------      ----- ------------  ---------------
   253      6.950626   6 C  dxy             296     -6.950709   7 C  dxy       
   342      4.527727   8 C  dyz             385      4.527360   9 C  dyz       
   238     -4.211315   6 C  py              281     -4.211393   7 C  py        
   152      3.749775   4 C  py              195      3.749321   5 C  py        
   170     -3.242633   4 C  dyz             213     -3.243268   5 C  dyz       

 Vector   88  Occ=0.000000D+00  E= 4.011733D-01
              MO Center=  3.0D-04, -4.6D-07, -2.1D+00, r^2= 1.3D+01
   Bfn.  Coefficient  Atom+Function         Bfn.  Coefficient  Atom+Function  
  ----- ------------  ---------------      ----- ------------  ---------------
   417     13.680326  12 H  s               426     13.705373  13 H  s         
   338     12.319616   8 C  dxx             381     12.324136   9 C  dxx       
   239     10.075263   6 C  pz              282     10.078163   7 C  pz        
   343     -9.279792   8 C  dzz             386     -9.285211   9 C  dzz       
     5     -9.212376   1 S  s               257     -7.598814   6 C  dzz       

 Vector   89  Occ=0.000000D+00  E= 4.026392D-01
              MO Center= -3.9D-04, -9.8D-08, -1.1D+00, r^2= 1.3D+01
   Bfn.  Coefficient  Atom+Function         Bfn.  Coefficient  Atom+Function  
[...]
     Transition Moments   YY -0.24201  YZ -0.00000  ZZ -1.72476
     Dipole Oscillator Strength                    0.2610364071
     Electric Quadrupole                           0.0000000403
     Magnetic Dipole                               0.0000000000
     Total Oscillator Strength                     0.2610364474

     Occ.   25  a   ---  Virt.   36  a       -0.06093
     Occ.   30  a   ---  Virt.   41  a       -0.05958
     Occ.   34  a   ---  Virt.   36  a        0.89820
     Occ.   35  a   ---  Virt.   40  a       -0.38449
  ----------------------------------------------------------------------------
  Root   3 singlet a              0.173920547 a.u.                4.7326 eV 
  ----------------------------------------------------------------------------
     Transition Moments    X  0.00000   Y  0.00005   Z  0.00007
     Transition Moments   XX -0.00003  XY -0.94554  XZ -0.00000
     Transition Moments   YY  0.00001  YZ  0.00012  ZZ  0.00008
     Dipole Oscillator Strength                    0.0000000008
     Electric Quadrupole                           0.0000000250
     Magnetic Dipole                               0.0000014700
     Total Oscillator Strength                     0.0000014959

     Occ.   33  a   ---  Virt.   36  a       -0.97730
     Occ.   33  a   ---  Virt.   41  a        0.18898
  ----------------------------------------------------------------------------
  Root   4 singlet a              0.193172139 a.u.                5.2565 eV 
  ----------------------------------------------------------------------------
     Transition Moments    X  0.00000   Y -0.05140   Z -0.00000
     Transition Moments   XX  0.00000  XY -0.00052  XZ -0.00000
     Transition Moments   YY -0.00000  YZ -0.20306  ZZ  0.00000
     Dipole Oscillator Strength                    0.0003402103
     Electric Quadrupole                           0.0000000016
     Magnetic Dipole                               0.0000000063
     Total Oscillator Strength                     0.0003402182

     Occ.   27  a   ---  Virt.   36  a       -0.09670
     Occ.   27  a   ---  Virt.   41  a        0.08116
     Occ.   32  a   ---  Virt.   36  a        0.98123
     Occ.   32  a   ---  Virt.   41  a       -0.08833
     Occ.   33  a   ---  Virt.   40  a       -0.05554
  ----------------------------------------------------------------------------
  Root   5 singlet a              0.235415493 a.u.                6.4060 eV 
  ----------------------------------------------------------------------------
     Transition Moments    X -0.00073   Y  0.00000   Z  1.55581
     Transition Moments   XX -0.71218  XY -0.00000  XZ  0.00137
     Transition Moments   YY  0.22727  YZ -0.00000  ZZ  0.88786
     Dipole Oscillator Strength                    0.3798868002
     Electric Quadrupole                           0.0000000449
     Magnetic Dipole                               0.0000000000
     Total Oscillator Strength                     0.3798868451

     Occ.   30  a   ---  Virt.   36  a       -0.24336
     Occ.   31  a   ---  Virt.   40  a       -0.19390
     Occ.   32  a   ---  Virt.   49  a       -0.05586
     Occ.   33  a   ---  Virt.   39  a        0.07408
     Occ.   33  a   ---  Virt.   45  a       -0.05109
     Occ.   34  a   ---  Virt.   36  a       -0.24377
     Occ.   34  a   ---  Virt.   41  a        0.62587
     Occ.   34  a   ---  Virt.   44  a       -0.12301
     Occ.   35  a   ---  Virt.   40  a       -0.62356
  ----------------------------------------------------------------------------
  Root   6 singlet a              0.241601661 a.u.                6.5743 eV 
  ----------------------------------------------------------------------------
     Transition Moments    X -0.00003   Y  0.00001   Z -0.00000
     Transition Moments   XX -0.00000  XY -0.61107  XZ  0.00002
     Transition Moments   YY  0.00000  YZ  0.00003  ZZ -0.00000
     Dipole Oscillator Strength                    0.0000000002
     Electric Quadrupole                           0.0000000280
     Magnetic Dipole                               0.0000004107
     Total Oscillator Strength                     0.0000004389

     Occ.   30  a   ---  Virt.   39  a       -0.17784
     Occ.   30  a   ---  Virt.   42  a       -0.09597
     Occ.   30  a   ---  Virt.   45  a        0.13752
     Occ.   34  a   ---  Virt.   39  a       -0.73308
     Occ.   34  a   ---  Virt.   42  a       -0.37736
     Occ.   34  a   ---  Virt.   45  a        0.47818
     Occ.   34  a   ---  Virt.   47  a       -0.13073
  ----------------------------------------------------------------------------
  Root   7 singlet a              0.245525872 a.u.                6.6811 eV 
  ----------------------------------------------------------------------------
     Transition Moments    X  0.00000   Y  0.00004   Z -0.00000
     Transition Moments   XX  0.00000  XY -1.32534  XZ  0.00000
     Transition Moments   YY  0.00000  YZ  0.00027  ZZ  0.00000
     Dipole Oscillator Strength                    0.0000000003
     Electric Quadrupole                           0.0000001384
     Magnetic Dipole                               0.0000003294
     Total Oscillator Strength                     0.0000004681

     Occ.   30  a   ---  Virt.   42  a       -0.07263
     Occ.   31  a   ---  Virt.   37  a        0.05513
     Occ.   31  a   ---  Virt.   43  a       -0.08917
     Occ.   31  a   ---  Virt.   48  a       -0.05594
     Occ.   34  a   ---  Virt.   42  a        0.08343
     Occ.   35  a   ---  Virt.   37  a        0.92046
     Occ.   35  a   ---  Virt.   38  a       -0.08637
     Occ.   35  a   ---  Virt.   43  a        0.24853
     Occ.   35  a   ---  Virt.   46  a       -0.07064
     Occ.   35  a   ---  Virt.   48  a       -0.05234
     Occ.   35  a   ---  Virt.   49  a       -0.14455
     Occ.   35  a   ---  Virt.   54  a        0.05948
     Occ.   35  a   ---  Virt.   58  a        0.10848
     Occ.   35  a   ---  Virt.   61  a        0.05151
  ----------------------------------------------------------------------------
  Root   8 singlet a              0.247587322 a.u.                6.7372 eV 
  ----------------------------------------------------------------------------
     Transition Moments    X -0.00001   Y -0.16075   Z  0.00000
     Transition Moments   XX -0.00001  XY -0.00065  XZ  0.00053
     Transition Moments   YY  0.00000  YZ -0.72466  ZZ -0.00001
     Dipole Oscillator Strength                    0.0042651092
     Electric Quadrupole                           0.0000000424
     Magnetic Dipole                               0.0000000966
     Total Oscillator Strength                     0.0042652483

     Occ.   27  a   ---  Virt.   36  a       -0.07228
     Occ.   29  a   ---  Virt.   36  a        0.13503
     Occ.   31  a   ---  Virt.   39  a       -0.25070
     Occ.   31  a   ---  Virt.   42  a       -0.12697
     Occ.   31  a   ---  Virt.   45  a        0.18536
     Occ.   32  a   ---  Virt.   36  a       -0.05907
     Occ.   32  a   ---  Virt.   41  a       -0.06568
     Occ.   34  a   ---  Virt.   43  a       -0.05173
     Occ.   35  a   ---  Virt.   39  a        0.71833
     Occ.   35  a   ---  Virt.   42  a        0.36089
     Occ.   35  a   ---  Virt.   45  a       -0.41367
     Occ.   35  a   ---  Virt.   47  a        0.12774

              Target root =      1
          Target symmetry = none
      Ground state energy =   -738.406065393278
        Excitation energy =      0.164421442238
     Excited state energy =   -738.241643951040

  stored tddft:energy   -738.24164395104049     

    8 smallest eigenvalue differences (eV) 
--------------------------------------------------------
  No. Spin  Occ  Vir  Irrep   E(Occ)    E(Vir)   E(Diff)
--------------------------------------------------------
    1    1   35   36 a        -0.333    -0.031     8.219
    2    1   34   36 a        -0.350    -0.031     8.679
    3    1   33   36 a        -0.392    -0.031     9.820
    4    1   32   36 a        -0.410    -0.031    10.315
    5    1   35   37 a        -0.333     0.054    10.517
    6    1   35   38 a        -0.333     0.055    10.543
    7    1   35   39 a        -0.333     0.058    10.630
    8    1   35   40 a        -0.333     0.063    10.769
--------------------------------------------------------

  Entering Davidson iterations
  Restricted triplet excited states

  Iter   NTrls   NConv    DeltaV     DeltaE      Time   
  ----  ------  ------  ---------  ---------  --------- 
    1      8       0     0.59E-01   0.10+100      253.3
    2     16       0     0.29E-01   0.28E-01      253.4
    3     24       0     0.79E-01   0.44E-01      252.2
    4     32       0     0.11E+00   0.21E-01      252.1
    5     40       0     0.44E-01   0.84E-02      252.7
    6     48       1     0.39E-01   0.33E-02      254.8
    7     55       3     0.71E-01   0.11E-01      246.0
    8     60       4     0.18E+00   0.14E-01      225.5
    9     64       4     0.61E-01   0.15E-01      213.6
   10     68       4     0.16E-01   0.18E-02      215.8
   11     72       6     0.28E-02   0.92E-04      214.0
   12     74       6     0.59E-03   0.28E-05      195.2
   13     76       7     0.20E-03   0.19E-06      193.5
   14     77       8     0.62E-04   0.18E-07      182.8
  ----  ------  ------  ---------  ---------  --------- 
  Convergence criterion met

  Ground state a        -738.406065393278 a.u.

  ----------------------------------------------------------------------------
  Root   1 triplet a              0.100086645 a.u.                2.7235 eV 
  ----------------------------------------------------------------------------
     Transition Moments                    Spin forbidden
     Oscillator Strength                   Spin forbidden

     Occ.   30  a   ---  Virt.   40  a        0.08443
     Occ.   31  a   ---  Virt.   36  a        0.12694
     Occ.   31  a   ---  Virt.   41  a       -0.17378
     Occ.   34  a   ---  Virt.   40  a       -0.09127
     Occ.   35  a   ---  Virt.   36  a       -0.95434
     Occ.   35  a   ---  Virt.   41  a       -0.10746
     Occ.   35  a   ---  Virt.   44  a        0.05487
  ----------------------------------------------------------------------------
  Root   2 triplet a              0.117881286 a.u.                3.2077 eV 
  ----------------------------------------------------------------------------
     Transition Moments                    Spin forbidden
     Oscillator Strength                   Spin forbidden

     Occ.   30  a   ---  Virt.   36  a       -0.10116
     Occ.   30  a   ---  Virt.   41  a        0.12474
     Occ.   34  a   ---  Virt.   36  a       -0.97760
     Occ.   34  a   ---  Virt.   41  a        0.10487
  ----------------------------------------------------------------------------
  Root   3 triplet a              0.150103618 a.u.                4.0845 eV 
  ----------------------------------------------------------------------------
     Transition Moments                    Spin forbidden
     Oscillator Strength                   Spin forbidden

     Occ.   32  a   ---  Virt.   40  a        0.07855
     Occ.   33  a   ---  Virt.   36  a       -0.95145
     Occ.   33  a   ---  Virt.   41  a        0.27390
  ----------------------------------------------------------------------------
  Root   4 triplet a              0.160537397 a.u.                4.3684 eV 
  ----------------------------------------------------------------------------
     Transition Moments                    Spin forbidden
     Oscillator Strength                   Spin forbidden

     Occ.   25  a   ---  Virt.   40  a       -0.06530
     Occ.   30  a   ---  Virt.   40  a        0.05554
     Occ.   31  a   ---  Virt.   36  a       -0.70337
     Occ.   31  a   ---  Virt.   41  a        0.06726
     Occ.   35  a   ---  Virt.   41  a       -0.67807
     Occ.   35  a   ---  Virt.   44  a        0.09278
     Occ.   35  a   ---  Virt.   59  a       -0.05392
     Occ.   35  a   ---  Virt.   66  a       -0.06451
  ----------------------------------------------------------------------------
  Root   5 triplet a              0.177331635 a.u.                4.8254 eV 
  ----------------------------------------------------------------------------
     Transition Moments                    Spin forbidden
     Oscillator Strength                   Spin forbidden

     Occ.   27  a   ---  Virt.   36  a        0.15784
     Occ.   27  a   ---  Virt.   41  a       -0.11250
     Occ.   32  a   ---  Virt.   36  a       -0.95155
     Occ.   32  a   ---  Virt.   41  a        0.16039
     Occ.   33  a   ---  Virt.   40  a        0.12868
  ----------------------------------------------------------------------------
  Root   6 triplet a              0.180607640 a.u.                4.9146 eV 
  ----------------------------------------------------------------------------
     Transition Moments                    Spin forbidden
     Oscillator Strength                   Spin forbidden

     Occ.   30  a   ---  Virt.   36  a       -0.42332
     Occ.   30  a   ---  Virt.   41  a       -0.08272
     Occ.   31  a   ---  Virt.   40  a        0.11395
     Occ.   34  a   ---  Virt.   41  a        0.33209
     Occ.   35  a   ---  Virt.   40  a        0.81199
     Occ.   35  a   ---  Virt.   53  a        0.07760
     Occ.   35  a   ---  Virt.   68  a       -0.07823
  ----------------------------------------------------------------------------
  Root   7 triplet a              0.204001715 a.u.                5.5512 eV 
  ----------------------------------------------------------------------------
     Transition Moments                    Spin forbidden
     Oscillator Strength                   Spin forbidden

     Occ.   25  a   ---  Virt.   40  a       -0.08129
     Occ.   30  a   ---  Virt.   40  a       -0.09317
     Occ.   30  a   ---  Virt.   53  a       -0.07006
     Occ.   30  a   ---  Virt.   56  a        0.06852
     Occ.   31  a   ---  Virt.   36  a       -0.18726
     Occ.   31  a   ---  Virt.   41  a        0.10393
     Occ.   34  a   ---  Virt.   40  a        0.92298
     Occ.   34  a   ---  Virt.   56  a        0.08317
     Occ.   35  a   ---  Virt.   36  a       -0.17138
     Occ.   35  a   ---  Virt.   41  a        0.16004
  ----------------------------------------------------------------------------
  Root   8 triplet a              0.208874482 a.u.                5.6838 eV 
  ----------------------------------------------------------------------------
     Transition Moments                    Spin forbidden
     Oscillator Strength                   Spin forbidden

     Occ.   30  a   ---  Virt.   36  a        0.34929
     Occ.   30  a   ---  Virt.   41  a        0.07286
     Occ.   34  a   ---  Virt.   36  a       -0.12000
     Occ.   34  a   ---  Virt.   41  a       -0.75342
     Occ.   34  a   ---  Virt.   44  a        0.08161
     Occ.   34  a   ---  Virt.   66  a       -0.05639
     Occ.   35  a   ---  Virt.   40  a        0.51414
     Occ.   35  a   ---  Virt.   56  a        0.05444

              Target root =      1
          Target symmetry = none
      Ground state energy =   -738.406065393278
        Excitation energy =      0.100086644661
     Excited state energy =   -738.305978748617

  stored tddft:energy   -738.30597874861667     

 Task  times  cpu:     6221.8s     wall:     7529.7s


                                NWChem Input Module
                                -------------------


 Summary of allocated global arrays
-----------------------------------
  No active global arrays


MA_summarize_allocated_blocks: starting scan ...
heap block 'gridpts', handle 79, address 0x129c5068:
	type of elements:		double precision
	number of elements:		5242760164
	address of client space:	0x129c50c0
	index for client space:		10872175
	total number of bytes:		41942081408
MA_summarize_allocated_blocks: scan completed: 1 heap block, 0 stack blocks
MA usage statistics:

	allocation statistics:
					      heap	     stack
					      ----	     -----
	current number of blocks	         1	         0
	maximum number of blocks	        18	        53
	current total bytes		41942081408	         0
	maximum total bytes		41943681104	  49213144
	maximum total K-bytes		  41943682	     49214
	maximum total M-bytes		     41944	        50


                                     CITATION
                                     --------
                Please cite the following reference when publishing
                           results obtained with NWChem:

          E. Apra, E. J. Bylaska, W. A. de Jong, N. Govind, K. Kowalski,
       T. P. Straatsma, M. Valiev, H. J. J. van Dam, Y. Alexeev, J. Anchell,
       V. Anisimov, F. W. Aquino, R. Atta-Fynn, J. Autschbach, N. P. Bauman,
     J. C. Becca, D. E. Bernholdt, K. Bhaskaran-Nair, S. Bogatko, P. Borowski,
         J. Boschen, J. Brabec, A. Bruner, E. Cauet, Y. Chen, G. N. Chuev,
      C. J. Cramer, J. Daily, M. J. O. Deegan, T. H. Dunning Jr., M. Dupuis,
   K. G. Dyall, G. I. Fann, S. A. Fischer, A. Fonari, H. Fruchtl, L. Gagliardi,
      J. Garza, N. Gawande, S. Ghosh, K. Glaesemann, A. W. Gotz, J. Hammond,
       V. Helms, E. D. Hermes, K. Hirao, S. Hirata, M. Jacquelin, L. Jensen,
   B. G. Johnson, H. Jonsson, R. A. Kendall, M. Klemm, R. Kobayashi, V. Konkov,
      S. Krishnamoorthy, M. Krishnan, Z. Lin, R. D. Lins, R. J. Littlefield,
      A. J. Logsdail, K. Lopata, W. Ma, A. V. Marenich, J. Martin del Campo,
   D. Mejia-Rodriguez, J. E. Moore, J. M. Mullin, T. Nakajima, D. R. Nascimento,
    J. A. Nichols, P. J. Nichols, J. Nieplocha, A. Otero-de-la-Roza, B. Palmer,
    A. Panyala, T. Pirojsirikul, B. Peng, R. Peverati, J. Pittner, L. Pollack,
   R. M. Richard, P. Sadayappan, G. C. Schatz, W. A. Shelton, D. W. Silverstein,
   D. M. A. Smith, T. A. Soares, D. Song, M. Swart, H. L. Taylor, G. S. Thomas,
            V. Tipparaju, D. G. Truhlar, K. Tsemekhman, T. Van Voorhis,
      A. Vazquez-Mayagoitia, P. Verma, O. Villa, A. Vishnu, K. D. Vogiatzis,
        D. Wang, J. H. Weare, M. J. Williamson, T. L. Windus, K. Wolinski,
        A. T. Wong, Q. Wu, C. Yang, Q. Yu, M. Zacharias, Z. Zhang, Y. Zhao,
                                and R. J. Harrison
                        "NWChem: Past, present, and future
                         J. Chem. Phys. 152, 184102 (2020)
                               doi:10.1063/5.0004997

                                      AUTHORS
                                      -------
  E. Apra, E. J. Bylaska, N. Govind, K. Kowalski, M. Valiev, D. Mejia-Rodriguez,
       A. Kunitsa, N. P. Bauman, A. Panyala, W. A. de Jong, T. P. Straatsma,
   H. J. J. van Dam, D. Wang, T. L. Windus, J. Hammond, J. Autschbach, A. Woods,
    K. Bhaskaran-Nair, J. Brabec, K. Lopata, S. A. Fischer, S. Krishnamoorthy,
     M. Jacquelin, W. Ma, M. Klemm, O. Villa, Y. Chen, V. Anisimov, F. Aquino,
     S. Hirata, M. T. Hackler, E. Hermes, L. Jensen, J. E. Moore, J. C. Becca,
      V. Konjkov, T. Risthaus, M. Malagoli, A. Marenich, A. Otero-de-la-Roza,
        J. Mullin, P. Nichols, R. Peverati, J. Pittner, Y. Zhao, P.-D. Fan,
        A. Fonari, M. J. Williamson, R. J. Harrison, J. R. Rehr, M. Dupuis,
     D. Silverstein, D. M. A. Smith, J. Nieplocha, V. Tipparaju, M. Krishnan,
     B. E. Van Kuiken, A. Vazquez-Mayagoitia, M. Swart, Q. Wu, T. Van Voorhis,
     A. A. Auer, M. Nooijen, L. D. Crosby, E. Brown, G. Cisneros, G. I. Fann,
   H. Fruchtl, J. Garza, K. Hirao, R. A. Kendall, J. A. Nichols, K. Tsemekhman,
    K. Wolinski, J. Anchell, D. E. Bernholdt, P. Borowski, T. Clark, D. Clerc,
   H. Dachsel, M. J. O. Deegan, K. Dyall, D. Elwood, E. Glendening, M. Gutowski,
   A. C. Hess, J. Jaffe, B. G. Johnson, J. Ju, R. Kobayashi, R. Kutteh, Z. Lin,
   R. Littlefield, X. Long, B. Meng, T. Nakajima, S. Niu, L. Pollack, M. Rosing,
   K. Glaesemann, G. Sandrone, M. Stave, H. Taylor, G. Thomas, J. H. van Lenthe,
                               A. T. Wong, Z. Zhang.

 Total times  cpu:     6221.8s     wall:     7530.2s
