 argument  1 = /home/aditisingh4812/nw_chem/nwchem-run/nwchem-run/tddft/closed/lcwpbe/geom-MOL/benzothiadiazole.nw
                                         
                                         


             Northwest Computational Chemistry Package (NWChem) 7.2.3
             --------------------------------------------------------


                    Environmental Molecular Sciences Laboratory
                       Pacific Northwest National Laboratory
                                Richland, WA 99352

                              Copyright (c) 1994-2022
                       Pacific Northwest National Laboratory
                            Battelle Memorial Institute

             NWChem is an open-source computational chemistry package
                        distributed under the terms of the
                      Educational Community License (ECL) 2.0
             A copy of the license is included with this distribution
                              in the LICENSE.TXT file

                                  ACKNOWLEDGMENT
                                  --------------

            This software and its documentation were developed at the
            EMSL at Pacific Northwest National Laboratory, a multiprogram
            national laboratory, operated for the U.S. Department of Energy
            by Battelle under Contract Number DE-AC05-76RL01830. Support
            for this work was provided by the Department of Energy Office
            of Biological and Environmental Research, Office of Basic
            Energy Sciences, and the Office of Advanced Scientific Computing.


           Job information
           ---------------

    hostname        = p24
    program         = /home/aditisingh4812/nw_chem/nwchem-7.2.3-release.revision-d690e065-srconly.2024-08-27/nwchem-7.2.3/bin/LINUX64/nwchem
    date            = Thu May  8 20:23:24 2025

    compiled        = Mon_Apr_07_18:51:54_2025
    source          = /home/aditisingh4812/nw_chem/nwchem-7.2.3-release.revision-d690e065-srconly.2024-08-27/nwchem-7.2.3
    nwchem branch   = 7.2.3
    nwchem revision = d690e065
    ga revision     = 5.8.0
    use scalapack   = F
    input           = /home/aditisingh4812/nw_chem/nwchem-run/nwchem-run/tddft/closed/lcwpbe/geom-MOL/benzothiadiazole.nw
    prefix          = benzothiadiazole.
    data base       = ./benzothiadiazole.db
    status          = startup
    nproc           =       48
    time left       =     -1s



           Memory information
           ------------------

    heap     = ********** doubles = 200000.0 Mbytes
    stack    = ********** doubles = 200000.0 Mbytes
    global   = ********** doubles = 100000.0 Mbytes (distinct from heap & stack)
    total    = ********** doubles = 500000.0 Mbytes
    verify   = yes
    hardfail = no 


           Directory information
           ---------------------

  0 permanent = .
  0 scratch   = .




                                NWChem Input Module
                                -------------------



 Scaling coordinates for geometry "geometry" by  1.889725989
 (inverse scale =  0.529177249)



                             Geometry "geometry" -> ""
                             -------------------------

 Output coordinates in angstroms (scale by  1.889725989 to convert to a.u.)

  No.       Tag          Charge          X              Y              Z
 ---- ---------------- ---------- -------------- -------------- --------------
    1 S                   16.0000     0.00000000     0.00000000     2.25072991
    2 N                    7.0000     1.25941500     0.00000000     1.21360891
    3 N                    7.0000    -1.25941500     0.00000000     1.21360891
    4 C                    6.0000     0.71684800     0.00000000    -0.01347809
    5 C                    6.0000    -0.71684800     0.00000000    -0.01347809
    6 C                    6.0000     1.43200000     0.00000000    -1.23857109
    7 C                    6.0000    -1.43200000     0.00000000    -1.23857109
    8 C                    6.0000     0.71420200     0.00000000    -2.40186009
    9 C                    6.0000    -0.71420200     0.00000000    -2.40186009
   10 H                    1.0000     2.50857100     0.00000000    -1.22998009
   11 H                    1.0000    -2.50857100     0.00000000    -1.22998009
   12 H                    1.0000     1.23108300     0.00000000    -3.34766609
   13 H                    1.0000    -1.23108300     0.00000000    -3.34766609

      Atomic Mass 
      ----------- 

      S                 31.972070
      N                 14.003070
      C                 12.000000
      H                  1.007825


 Effective nuclear repulsion energy (a.u.)     478.0007831309

            Nuclear Dipole moment (a.u.) 
            ----------------------------
        X                 Y               Z
 ---------------- ---------------- ----------------
     0.0000000000     0.0000000000     0.0000000000


            XYZ format geometry
            -------------------
    13
 geometry
 S                     0.00000000     0.00000000     2.25072991
 N                     1.25941500     0.00000000     1.21360891
 N                    -1.25941500     0.00000000     1.21360891
 C                     0.71684800     0.00000000    -0.01347809
 C                    -0.71684800     0.00000000    -0.01347809
 C                     1.43200000     0.00000000    -1.23857109
 C                    -1.43200000     0.00000000    -1.23857109
 C                     0.71420200     0.00000000    -2.40186009
 C                    -0.71420200     0.00000000    -2.40186009
 H                     2.50857100     0.00000000    -1.22998009
 H                    -2.50857100     0.00000000    -1.22998009
 H                     1.23108300     0.00000000    -3.34766609
 H                    -1.23108300     0.00000000    -3.34766609

 ==============================================================================
                                internuclear distances
 ------------------------------------------------------------------------------
       center one      |      center two      | atomic units |  angstroms
 ------------------------------------------------------------------------------
    2 N                |   1 S                |     3.08306  |     1.63149
    3 N                |   1 S                |     3.08306  |     1.63149
    4 C                |   2 N                |     2.53542  |     1.34169
    5 C                |   3 N                |     2.53542  |     1.34169
    5 C                |   4 C                |     2.70929  |     1.43370
    6 C                |   4 C                |     2.68068  |     1.41855
    7 C                |   5 C                |     2.68068  |     1.41855
    8 C                |   6 C                |     2.58311  |     1.36692
    9 C                |   7 C                |     2.58311  |     1.36692
    9 C                |   8 C                |     2.69929  |     1.42840
   10 H                |   6 C                |     2.03449  |     1.07661
   11 H                |   7 C                |     2.03449  |     1.07661
   12 H                |   8 C                |     2.03680  |     1.07783
   13 H                |   9 C                |     2.03680  |     1.07783
 ------------------------------------------------------------------------------
                         number of included internuclear distances:         14
 ==============================================================================



 ==============================================================================
                                 internuclear angles
 ------------------------------------------------------------------------------
        center 1       |       center 2       |       center 3       |  degrees
 ------------------------------------------------------------------------------
    2 N                |   1 S                |   3 N                |   101.06
    1 S                |   2 N                |   4 C                |   105.62
    1 S                |   3 N                |   5 C                |   105.62
    2 N                |   4 C                |   5 C                |   113.85
    2 N                |   4 C                |   6 C                |   125.87
    5 C                |   4 C                |   6 C                |   120.27
    3 N                |   5 C                |   4 C                |   113.85
    3 N                |   5 C                |   7 C                |   125.87
    4 C                |   5 C                |   7 C                |   120.27
    4 C                |   6 C                |   8 C                |   118.05
    4 C                |   6 C                |  10 H                |   119.82
    8 C                |   6 C                |  10 H                |   122.13
    5 C                |   7 C                |   9 C                |   118.05
    5 C                |   7 C                |  11 H                |   119.82
    9 C                |   7 C                |  11 H                |   122.13
    6 C                |   8 C                |   9 C                |   121.68
    6 C                |   8 C                |  12 H                |   119.67
    9 C                |   8 C                |  12 H                |   118.66
    7 C                |   9 C                |   8 C                |   121.68
    7 C                |   9 C                |  13 H                |   119.67
    8 C                |   9 C                |  13 H                |   118.66
 ------------------------------------------------------------------------------
                            number of included internuclear angles:         21
 ==============================================================================





 Summary of "ao basis" -> "" (cartesian)
 ------------------------------------------------------------------------------
       Tag                 Description            Shells   Functions and Types
 ---------------- ------------------------------  ------  ---------------------
 *                         def2-TZVPD                 on all atoms 


  pbe96 is a nonlocal functional; adding pw91lda local functional. 

                                 NWChem DFT Module
                                 -----------------


                      Basis "ao basis" -> "ao basis" (cartesian)
                      -----
  S (Sulphur)
  -----------
            Exponent  Coefficients 
       -------------- ---------------------------------------------------------
  1 S  6.07009281E+04  0.000547
  1 S  9.10261069E+03  0.004230
  1 S  2.07141660E+03  0.021748
  1 S  5.86024768E+02  0.085100
  1 S  1.90553950E+02  0.247991
  1 S  6.76303843E+01  0.467036
  1 S  2.51273069E+01  0.364346

  2 S  1.12574630E+02  0.021670
  2 S  3.47955542E+01  0.093602
  2 S  6.51155562E+00 -0.260680

  3 S  3.23990323E+00  1.284209
  3 S  1.54771609E+00  0.660364

  4 S  4.05410301E-01  1.000000

  5 S  1.45506511E-01  1.000000

  6 S  5.01788395E-02  1.000000

  7 P  5.64367160E+02  0.002480
  7 P  1.33426244E+02  0.019678
  7 P  4.24682712E+01  0.089980
  7 P  1.56165276E+01  0.257059
  7 P  6.10939885E+00  0.435152

  8 P  2.44041602E+00  1.000000

  9 P  8.38822013E-01  1.000000

 10 P  3.12887469E-01  1.000000

 11 P  1.07701090E-01  1.000000

 12 P  3.03598336E-02  1.000000

 13 D  3.75600000E+00  0.200000
 13 D  8.12000000E-01  1.000000

 14 D  2.73000000E-01  1.000000

 15 D  8.15470250E-02  1.000000

 16 F  5.57000000E-01  1.000000

  N (Nitrogen)
  ------------
            Exponent  Coefficients 
       -------------- ---------------------------------------------------------
  1 S  1.97308006E+04  0.000219
  1 S  2.95789587E+03  0.001696
  1 S  6.73221336E+02  0.008795
  1 S  1.90682495E+02  0.035359
  1 S  6.22954419E+01  0.110958
  1 S  2.26541612E+01  0.249830

  2 S  8.97914774E+00  0.406239
  2 S  3.68630024E+00  0.243382

  3 S  8.46600768E-01  1.000000

  4 S  3.36471338E-01  1.000000

  5 S  1.36476537E-01  1.000000

  6 S  6.84416058E-02  1.000000

  7 P  4.92003805E+01  0.005555
  7 P  1.13467905E+01  0.038052
  7 P  3.42739724E+00  0.149537
  7 P  1.17855251E+00  0.349493

  8 P  4.16422050E-01  1.000000

  9 P  1.42608260E-01  1.000000

 10 D  1.65400000E+00  1.000000

 11 D  4.69000000E-01  1.000000

 12 D  1.28296421E-01  1.000000

 13 F  1.09300000E+00  1.000000

  C (Carbon)
  ----------
            Exponent  Coefficients 
       -------------- ---------------------------------------------------------
  1 S  1.35753497E+04  0.000222
  1 S  2.03523337E+03  0.001723
  1 S  4.63225624E+02  0.008926
  1 S  1.31200196E+02  0.035728
  1 S  4.28530159E+01  0.110763
  1 S  1.55841858E+01  0.242956

  2 S  6.20671385E+00  0.414403
  2 S  2.57648965E+00  0.237450

  3 S  5.76963394E-01  1.000000

  4 S  2.29728314E-01  1.000000

  5 S  9.51644400E-02  1.000000

  6 S  4.84754014E-02  1.000000

  7 P  3.46972322E+01  0.005333
  7 P  7.95826228E+00  0.035864
  7 P  2.37808269E+00  0.142159
  7 P  8.14332082E-01  0.342705

  8 P  2.88875473E-01  1.000000

  9 P  1.00568237E-01  1.000000

 10 D  1.09700000E+00  1.000000

 11 D  3.18000000E-01  1.000000

 12 D  9.09853364E-02  1.000000

 13 F  7.61000000E-01  1.000000

  H (Hydrogen)
  ------------
            Exponent  Coefficients 
       -------------- ---------------------------------------------------------
  1 S  3.40613410E+01  0.006025
  1 S  5.12357460E+00  0.045021
  1 S  1.16466260E+00  0.201897

  2 S  3.27230410E-01  1.000000

  3 S  1.03072410E-01  1.000000

  4 P  8.00000000E-01  1.000000

  5 P  9.57741296E-02  1.000000



 Summary of "ao basis" -> "ao basis" (cartesian)
 ------------------------------------------------------------------------------
       Tag                 Description            Shells   Functions and Types
 ---------------- ------------------------------  ------  ---------------------
 S                         def2-TZVPD               16       52   6s6p3d1f
 N                         def2-TZVPD               13       43   6s3p3d1f
 C                         def2-TZVPD               13       43   6s3p3d1f
 H                         def2-TZVPD                5        9   3s2p




 Summary of "ao basis" -> "ao basis" (cartesian)
 ------------------------------------------------------------------------------
       Tag                 Description            Shells   Functions and Types
 ---------------- ------------------------------  ------  ---------------------
 S                         def2-TZVPD               16       52   6s6p3d1f
 N                         def2-TZVPD               13       43   6s3p3d1f
 C                         def2-TZVPD               13       43   6s3p3d1f
 H                         def2-TZVPD                5        9   3s2p


  int_init: cando_txs set to always be  F
  Caching 1-el integrals 

            General Information
            -------------------
          SCF calculation type: DFT
          Wavefunction type:  closed shell.
          No. of atoms     :    13
          No. of electrons :    70
           Alpha electrons :    35
            Beta electrons :    35
          Charge           :     0
          Spin multiplicity:     1
          Use of symmetry is: off; symmetry adaption is: off
          Maximum number of iterations:  50
          AO basis - number of functions:   432
                     number of shells:   140
          Convergence on energy requested:  1.00D-06
          Convergence on density requested:  1.00D-05
          Convergence on gradient requested:  5.00D-04

              XC Information
              --------------
                     Hartree-Fock (Exact) Exchange  1.000          
                     LC-wPBE(h)Exchange Functional  1.000          
            Perdew 1991 LDA Correlation Functional  1.000 local    
           PerdewBurkeErnz. Correlation Functional  1.000 non-local

           Range-Separation Parameters        
           ---------------------------
           Alpha           :  0.00
           Beta            :  1.00
           Gamma           :  0.27
           Short-Range HF  :     F

             Grid Information
             ----------------
          Grid used for XC integration:  xfine     
          Radial quadrature: Mura-Knowles        
          Angular quadrature: Lebedev. 
          Tag              B.-S. Rad. Rad. Pts. Rad. Cut. Ang. Pts.
          ---              ---------- --------- --------- ---------
          S                   1.00      125          16.0      1454
          N                   0.65      100          14.0      1454
          C                   0.70      100          17.0      1454
          H                   0.35      100          17.0      1202
          Grid pruning is: on 
          Number of quadrature shells:  1325
          Spatial weights used:  Erf1

          Convergence Information
          -----------------------
          Convergence aids based upon iterative change in 
          total energy or number of iterations. 
          Levelshifting, if invoked, occurs when the 
          HOMO/LUMO gap drops below (HL_TOL):  1.00D-02
          DIIS, if invoked, will attempt to extrapolate 
          using up to (NFOCK): 10 stored Fock matrices.

                    Damping( 0%)  Levelshifting(0.5)       DIIS
                  --------------- ------------------- ---------------
          dE  on:    start            ASAP                start   
          dE off:    2 iters         50 iters            50 iters 


      Screening Tolerance Information
      -------------------------------
          Density screening/tol_rho:  1.00D-10
          AO Gaussian exp screening on grid/accAOfunc:  14
          CD Gaussian exp screening on grid/accCDfunc:  20
          XC Gaussian exp screening on grid/accXCfunc:  20
          Schwarz screening/accCoul:  1.00D-08

  
  CAM type calculations without CDFIT are
  only available with the direct option.
  Forcing Direct SCF
  

 WARNING : Found    11 linear dependencies 
 S eigenvalue threshold:     1.00000E-05
 Smallest S eigenvalue :     2.07696E-08
 Largest  S eigenvalue :     8.96586E-06


 !! The overlap matrix has  11 vectors deemed linearly dependent with
    eigenvalues:
 2.08D-08 5.40D-07 1.02D-06 1.05D-06 1.47D-06 2.21D-06 2.21D-06 5.42D-06
 5.78D-06 6.90D-06 8.97D-06


      Superposition of Atomic Density Guess
      -------------------------------------

 Sum of atomic energies:        -734.13001370

      Non-variational initial energy
      ------------------------------

 Total energy =    -740.109882
 1-e energy   =   -1952.653795
 2-e energy   =     734.543129
 HOMO         =      -0.276479
 LUMO         =      -0.092736

  WARNING: movecs_in_org=atomic not equal to movecs_in=./benzothiadiazole.movecs
   Time after variat. SCF:     14.9
   Time prior to 1st pass:     14.9

 Grid_pts file          = ./benzothiadiazole.gridpts.00
 Record size in doubles =  12289        No. of grid_pts per rec  =   3070
 Max. records in memory =     16        Max. recs in file   =  21109390

 Grid integrated density:      69.987531542672
 Requested integration accuracy:   0.10E-07

           Memory utilization after 1st SCF pass: 
           Heap Space remaining (MW):    15728.56         15728559668
          Stack Space remaining (MW):    26214.40         26214397540

   convergence    iter        energy       DeltaE   RMS-Dens  Diis-err    time
 ---------------- ----- ----------------- --------- --------- ---------  ------
 d= 0,ls=0.0,diis     1   -736.9106798308 -1.21D+03  1.83D+02  5.22D+03    51.9
 Grid integrated density:      70.000017063554
 Requested integration accuracy:   0.10E-07
 d= 0,ls=0.0,diis     2   -717.0202894330  1.99D+01  1.62D+02  1.31D+02    91.4
 Grid integrated density:      70.000009043669
 Requested integration accuracy:   0.10E-07
 d= 0,ls=0.0,diis     3   -733.4399875443 -1.64D+01  8.01D+01  2.91D+01   130.4
 Grid integrated density:      70.000001908557
 Requested integration accuracy:   0.10E-07
 d= 0,ls=0.0,diis     4   -736.3706541739 -2.93D+00  3.05D-01  1.62D+01   167.1
 Grid integrated density:      70.000001574974
 Requested integration accuracy:   0.10E-07
 d= 0,ls=0.0,diis     5   -737.8877702995 -1.52D+00  3.03D-02  4.24D+00   203.4
 Grid integrated density:      70.000001658540
 Requested integration accuracy:   0.10E-07
 d= 0,ls=0.0,diis     6   -738.3001980227 -4.12D-01  6.55D-03  9.21D-01   240.9
 Grid integrated density:      70.000001660806
 Requested integration accuracy:   0.10E-07
 d= 0,ls=0.0,diis     7   -738.3922027932 -9.20D-02  2.31D-03  1.03D-01   280.1
 Grid integrated density:      70.000001740497
 Requested integration accuracy:   0.10E-07
  Resetting Diis
 d= 0,ls=0.0,diis     8   -738.4029047081 -1.07D-02  6.44D-04  1.02D-02   316.5
 d= 0,ls=0.0,diis     9   -738.4043629339 -1.46D-03  1.99D-03  8.73D-04   352.8
 d= 0,ls=0.0,diis    10   -738.4046448825 -2.82D-04  1.38D-04  6.51D-04   387.6
 d= 0,ls=0.0,diis    11   -738.4047603793 -1.15D-04  2.04D-04  9.07D-05   423.6
 d= 0,ls=0.0,diis    12   -738.4048221429 -6.18D-05  2.14D-05  1.44D-05   460.2
 d= 0,ls=0.0,diis    13   -738.4048316107 -9.47D-06  3.61D-05  2.69D-06   496.5
 d= 0,ls=0.0,diis    14   -738.4048326389 -1.03D-06  1.07D-05  6.44D-07   531.6
 d= 0,ls=0.0,diis    15   -738.4048327487 -1.10D-07  1.95D-06  4.09D-08   567.3


         Total DFT energy =     -738.404832748662
      One electron energy =    -1957.968368867938
           Coulomb energy =      814.672919328854
    Exchange-Corr. energy =      -73.110166340524
 Nuclear repulsion energy =      478.000783130947

 Numeric. integr. density =       70.000000410252

     Total iterative time =    552.5s



                       DFT Final Molecular Orbital Analysis
                       ------------------------------------

 Vector    1  Occ=2.000000D+00  E=-8.828670D+01
              MO Center=  4.7D-11,  4.4D-14,  2.3D+00, r^2= 3.6D-03
   Bfn.  Coefficient  Atom+Function         Bfn.  Coefficient  Atom+Function  
  ----- ------------  ---------------      ----- ------------  ---------------
     1      0.999361   1 S  s                 2     -0.033413   1 S  s         
     4      0.027675   1 S  s                 5      0.025647   1 S  s         

 Vector    2  Occ=2.000000D+00  E=-1.417888D+01
              MO Center= -1.2D+00, -4.3D-11,  1.2D+00, r^2= 1.9D-01
   Bfn.  Coefficient  Atom+Function         Bfn.  Coefficient  Atom+Function  
  ----- ------------  ---------------      ----- ------------  ---------------
    97      0.610702   3 N  s                96      0.443178   3 N  s         
    99     -0.109178   3 N  s                54     -0.103047   2 N  s         
    98      0.097100   3 N  s                53     -0.074779   2 N  s         

 Vector    3  Occ=2.000000D+00  E=-1.417883D+01
              MO Center=  1.2D+00,  3.9D-11,  1.2D+00, r^2= 1.9D-01
   Bfn.  Coefficient  Atom+Function         Bfn.  Coefficient  Atom+Function  
  ----- ------------  ---------------      ----- ------------  ---------------
    54      0.610702   2 N  s                53      0.443178   2 N  s         
    56     -0.108851   2 N  s                97      0.103047   3 N  s         
    55      0.097115   2 N  s                96      0.074781   3 N  s         

 Vector    4  Occ=2.000000D+00  E=-1.009569D+01
              MO Center= -4.3D-02, -9.7D-13, -1.3D-02, r^2= 5.4D-01
   Bfn.  Coefficient  Atom+Function         Bfn.  Coefficient  Atom+Function  
  ----- ------------  ---------------      ----- ------------  ---------------
   183      0.436323   5 C  s               140      0.410990   4 C  s         
   182      0.340701   5 C  s               139      0.320920   4 C  s         
   184      0.074715   5 C  s               185     -0.074366   5 C  s         
   141      0.070392   4 C  s               142     -0.070161   4 C  s         

 Vector    5  Occ=2.000000D+00  E=-1.009540D+01
              MO Center=  4.3D-02, -8.8D-13, -1.3D-02, r^2= 5.4D-01
   Bfn.  Coefficient  Atom+Function         Bfn.  Coefficient  Atom+Function  
  ----- ------------  ---------------      ----- ------------  ---------------
   140      0.436378   4 C  s               183     -0.411048   5 C  s         
   139      0.340740   4 C  s               182     -0.320961   5 C  s         
   141      0.074473   4 C  s               142     -0.072505   4 C  s         
   184     -0.070136   5 C  s               185      0.068185   5 C  s         

 Vector    6  Occ=2.000000D+00  E=-1.006326D+01
              MO Center= -5.2D-02,  9.9D-11, -2.4D+00, r^2= 6.1D-01
   Bfn.  Coefficient  Atom+Function         Bfn.  Coefficient  Atom+Function  
  ----- ------------  ---------------      ----- ------------  ---------------
   355      0.432801   9 C  s               312      0.403525   8 C  s         
   354      0.337946   9 C  s               311      0.315086   8 C  s         
   356      0.074520   9 C  s               357     -0.074228   9 C  s         
   269      0.070279   7 C  s               313      0.069520   8 C  s         
   314     -0.069268   8 C  s               226      0.064855   6 C  s         

 Vector    7  Occ=2.000000D+00  E=-1.006297D+01
              MO Center=  5.2D-02,  1.1D-10, -2.4D+00, r^2= 6.4D-01
   Bfn.  Coefficient  Atom+Function         Bfn.  Coefficient  Atom+Function  
  ----- ------------  ---------------      ----- ------------  ---------------
   312      0.430087   8 C  s               355     -0.400718   9 C  s         
   311      0.335832   8 C  s               354     -0.312899   9 C  s         
   226      0.085512   6 C  s               269     -0.080654   7 C  s         
   313      0.073484   8 C  s               314     -0.072918   8 C  s         
   356     -0.068426   9 C  s               357      0.067878   9 C  s         

 Vector    8  Occ=2.000000D+00  E=-1.006159D+01
              MO Center= -1.4D+00,  2.0D-10, -1.3D+00, r^2= 1.3D-01
   Bfn.  Coefficient  Atom+Function         Bfn.  Coefficient  Atom+Function  
  ----- ------------  ---------------      ----- ------------  ---------------
   269      0.587826   7 C  s               268      0.459023   7 C  s         
   355     -0.107012   9 C  s               270      0.100891   7 C  s         
   271     -0.099806   7 C  s               354     -0.083575   9 C  s         
   226     -0.044085   6 C  s               225     -0.034431   6 C  s         

 Vector    9  Occ=2.000000D+00  E=-1.006157D+01
              MO Center=  1.4D+00,  6.5D-12, -1.3D+00, r^2= 1.4D-01
   Bfn.  Coefficient  Atom+Function         Bfn.  Coefficient  Atom+Function  
  ----- ------------  ---------------      ----- ------------  ---------------
   226      0.588074   6 C  s               225      0.459215   6 C  s         
   312     -0.105668   8 C  s               227      0.100949   6 C  s         
   228     -0.099983   6 C  s               311     -0.082525   8 C  s         
   269      0.048058   7 C  s               268      0.037522   7 C  s         

 Vector   10  Occ=2.000000D+00  E=-7.907296D+00
              MO Center= -9.1D-08,  1.1D-11,  2.2D+00, r^2= 7.7D-02
   Bfn.  Coefficient  Atom+Function         Bfn.  Coefficient  Atom+Function  
  ----- ------------  ---------------      ----- ------------  ---------------
     3      0.800045   1 S  s                 1     -0.287899   1 S  s         
     2     -0.237981   1 S  s                 5      0.035262   1 S  s         
     4      0.034683   1 S  s                 6      0.032932   1 S  s         

 Vector   11  Occ=2.000000D+00  E=-5.927785D+00
              MO Center=  4.0D-08,  2.7D-11,  2.3D+00, r^2= 6.9D-02
   Bfn.  Coefficient  Atom+Function         Bfn.  Coefficient  Atom+Function  
  ----- ------------  ---------------      ----- ------------  ---------------
     7      0.713916   1 S  px               10      0.339089   1 S  px        
    13      0.063476   1 S  px               16      0.049602   1 S  px        
    46     -0.027744   1 S  fxyy             43     -0.026773   1 S  fxxx      
    48     -0.026487   1 S  fxzz      

 Vector   12  Occ=2.000000D+00  E=-5.920886D+00
              MO Center= -3.5D-09, -6.8D-10,  2.3D+00, r^2= 6.9D-02
   Bfn.  Coefficient  Atom+Function         Bfn.  Coefficient  Atom+Function  
  ----- ------------  ---------------      ----- ------------  ---------------
     9      0.714272   1 S  pz               12      0.338698   1 S  pz        
    15      0.063732   1 S  pz               18      0.047967   1 S  pz        
    52     -0.027203   1 S  fzzz             50     -0.027011   1 S  fyyz      
    45     -0.025850   1 S  fxxz      

 Vector   13  Occ=2.000000D+00  E=-5.920164D+00
              MO Center= -1.5D-08,  5.9D-10,  2.3D+00, r^2= 6.9D-02
   Bfn.  Coefficient  Atom+Function         Bfn.  Coefficient  Atom+Function  
  ----- ------------  ---------------      ----- ------------  ---------------
     8      0.714339   1 S  py               11      0.339080   1 S  py        
    14      0.066342   1 S  py               17      0.034102   1 S  py        

 Vector   14  Occ=2.000000D+00  E=-1.099302D+00
              MO Center= -1.2D-04, -6.8D-11,  1.1D+00, r^2= 1.5D+00
   Bfn.  Coefficient  Atom+Function         Bfn.  Coefficient  Atom+Function  
  ----- ------------  ---------------      ----- ------------  ---------------
     4      0.276459   1 S  s                 3     -0.206760   1 S  s         
    56      0.190528   2 N  s                99      0.190559   3 N  s         
    55      0.159710   2 N  s                98      0.159744   3 N  s         
   141      0.121621   4 C  s               184      0.121637   5 C  s         
   142      0.116313   4 C  s               185      0.116327   5 C  s         

 Vector   15  Occ=2.000000D+00  E=-9.712117D-01
              MO Center=  9.8D-05, -1.8D-10,  8.9D-01, r^2= 2.0D+00
   Bfn.  Coefficient  Atom+Function         Bfn.  Coefficient  Atom+Function  
  ----- ------------  ---------------      ----- ------------  ---------------
    56      0.233206   2 N  s                99     -0.233184   3 N  s         
    55      0.213199   2 N  s                98     -0.213189   3 N  s         
    54     -0.139143   2 N  s                97      0.139132   3 N  s         
   142      0.117380   4 C  s               185     -0.117362   5 C  s         
   141      0.116514   4 C  s               184     -0.116495   5 C  s         

 Vector   16  Occ=2.000000D+00  E=-9.483701D-01
              MO Center= -8.9D-05, -1.7D-09, -1.1D+00, r^2= 2.9D+00
   Bfn.  Coefficient  Atom+Function         Bfn.  Coefficient  Atom+Function  
  ----- ------------  ---------------      ----- ------------  ---------------
     4      0.171657   1 S  s               313     -0.153724   8 C  s         
   356     -0.153737   9 C  s               227     -0.146115   6 C  s         
   270     -0.146135   7 C  s               314     -0.133918   8 C  s         
   357     -0.133929   9 C  s                 3     -0.123301   1 S  s         
   228     -0.117315   6 C  s               271     -0.117325   7 C  s         

 Vector   17  Occ=2.000000D+00  E=-8.495666D-01
              MO Center= -6.2D-05, -7.7D-10, -2.3D-01, r^2= 4.8D+00
   Bfn.  Coefficient  Atom+Function         Bfn.  Coefficient  Atom+Function  
  ----- ------------  ---------------      ----- ------------  ---------------
     4      0.369505   1 S  s                 3     -0.246073   1 S  s         
   142     -0.171773   4 C  s               185     -0.171782   5 C  s         
   313      0.155782   8 C  s               356      0.155802   9 C  s         
   141     -0.143829   4 C  s               184     -0.143833   5 C  s         
   314      0.137938   8 C  s               357      0.137953   9 C  s         

 Vector   18  Occ=2.000000D+00  E=-8.443598D-01
              MO Center=  7.1D-05, -2.1D-09, -1.2D+00, r^2= 3.4D+00
   Bfn.  Coefficient  Atom+Function         Bfn.  Coefficient  Atom+Function  
  ----- ------------  ---------------      ----- ------------  ---------------
   227      0.208372   6 C  s               270     -0.208364   7 C  s         
   228      0.181266   6 C  s               271     -0.181257   7 C  s         
   226     -0.126192   6 C  s               269      0.126187   7 C  s         
   313      0.117885   8 C  s               356     -0.117859   9 C  s         
   314      0.116752   8 C  s               357     -0.116727   9 C  s         

 Vector   19  Occ=2.000000D+00  E=-7.375567D-01
              MO Center= -4.3D-05, -4.9D-10, -4.9D-01, r^2= 5.4D+00
   Bfn.  Coefficient  Atom+Function         Bfn.  Coefficient  Atom+Function  
  ----- ------------  ---------------      ----- ------------  ---------------
     4      0.353560   1 S  s                 3     -0.222986   1 S  s         
   314     -0.141089   8 C  s               357     -0.141101   9 C  s         
   147     -0.139570   4 C  pz              190     -0.139578   5 C  pz        
   228      0.135485   6 C  s               271      0.135486   7 C  s         
   227      0.123160   6 C  s               270      0.123163   7 C  s         

 Vector   20  Occ=2.000000D+00  E=-7.028529D-01
              MO Center=  4.8D-06, -3.7D-10, -5.4D-01, r^2= 4.9D+00
   Bfn.  Coefficient  Atom+Function         Bfn.  Coefficient  Atom+Function  
  ----- ------------  ---------------      ----- ------------  ---------------
   142      0.182300   4 C  s               185     -0.182278   5 C  s         
   233      0.142404   6 C  pz              276     -0.142406   7 C  pz        
   313     -0.142519   8 C  s               356      0.142514   9 C  s         
   314     -0.127170   8 C  s               357      0.127164   9 C  s         
    61     -0.125331   2 N  pz              104      0.125337   3 N  pz        

 Vector   21  Occ=2.000000D+00  E=-6.952779D-01
              MO Center=  3.3D-06, -4.1D-10, -4.3D-01, r^2= 3.6D+00
   Bfn.  Coefficient  Atom+Function         Bfn.  Coefficient  Atom+Function  
  ----- ------------  ---------------      ----- ------------  ---------------
   145      0.187771   4 C  px              188     -0.187761   5 C  px        
   228      0.152848   6 C  s               271      0.152846   7 C  s         
     4     -0.137706   1 S  s                56      0.120651   2 N  s         
    99      0.120659   3 N  s               227      0.111594   6 C  s         
   270      0.111589   7 C  s               142     -0.105741   4 C  s         

 Vector   22  Occ=2.000000D+00  E=-5.975051D-01
              MO Center= -2.3D-05, -5.1D-10, -3.8D-01, r^2= 5.9D+00
   Bfn.  Coefficient  Atom+Function         Bfn.  Coefficient  Atom+Function  
  ----- ------------  ---------------      ----- ------------  ---------------
    61      0.181714   2 N  pz              104     -0.181720   3 N  pz        
   314     -0.149526   8 C  s               357      0.149510   9 C  s         
   228      0.128167   6 C  s               271     -0.128143   7 C  s         
   147     -0.125738   4 C  pz              190      0.125780   5 C  pz        
    13      0.122943   1 S  px               16      0.120379   1 S  px        

 Vector   23  Occ=2.000000D+00  E=-5.941450D-01
              MO Center= -1.0D-05, -4.6D-10, -8.0D-01, r^2= 4.5D+00
   Bfn.  Coefficient  Atom+Function         Bfn.  Coefficient  Atom+Function  
  ----- ------------  ---------------      ----- ------------  ---------------
   317     -0.163134   8 C  px              360      0.163098   9 C  px        
   145      0.152225   4 C  px              188     -0.152238   5 C  px        
   233      0.106246   6 C  pz              276      0.106204   7 C  pz        
   231     -0.100878   6 C  px              274      0.100912   7 C  px        
   320     -0.100602   8 C  px              363      0.100585   9 C  px        

 Vector   24  Occ=2.000000D+00  E=-5.733469D-01
              MO Center= -9.0D-05, -3.2D-10, -1.4D+00, r^2= 5.0D+00
   Bfn.  Coefficient  Atom+Function         Bfn.  Coefficient  Atom+Function  
  ----- ------------  ---------------      ----- ------------  ---------------
     4      0.228164   1 S  s               319     -0.214305   8 C  pz        
   362     -0.214327   9 C  pz              233      0.152949   6 C  pz        
   276      0.152961   7 C  pz                3     -0.119279   1 S  s         
   322     -0.118496   8 C  pz              365     -0.118512   9 C  pz        
   325     -0.112928   8 C  pz              368     -0.112928   9 C  pz        

 Vector   25  Occ=2.000000D+00  E=-5.575485D-01
              MO Center= -1.0D-04,  1.4D-09,  7.2D-01, r^2= 2.8D+00
   Bfn.  Coefficient  Atom+Function         Bfn.  Coefficient  Atom+Function  
  ----- ------------  ---------------      ----- ------------  ---------------
    17      0.221133   1 S  py               60      0.169269   2 N  py        
   103      0.169299   3 N  py              146      0.166260   4 C  py        
   189      0.166276   5 C  py               63      0.146914   2 N  py        
   106      0.146940   3 N  py              149      0.134692   4 C  py        
   192      0.134704   5 C  py               14      0.105362   1 S  py        

 Vector   26  Occ=2.000000D+00  E=-5.389011D-01
              MO Center=  4.4D-05,  1.2D-10, -1.1D+00, r^2= 4.3D+00
   Bfn.  Coefficient  Atom+Function         Bfn.  Coefficient  Atom+Function  
  ----- ------------  ---------------      ----- ------------  ---------------
   231      0.243496   6 C  px              274      0.243490   7 C  px        
   398      0.167991  10 H  s               407     -0.167988  11 H  s         
   237      0.136035   6 C  px              280      0.136028   7 C  px        
   234      0.128828   6 C  px              277      0.128824   7 C  px        
   397      0.121602  10 H  s               406     -0.121599  11 H  s         

 Vector   27  Occ=2.000000D+00  E=-4.801406D-01
              MO Center= -5.8D-05,  4.8D-10, -1.2D+00, r^2= 5.3D+00
   Bfn.  Coefficient  Atom+Function         Bfn.  Coefficient  Atom+Function  
  ----- ------------  ---------------      ----- ------------  ---------------
   317      0.237574   8 C  px              360     -0.237575   9 C  px        
   323      0.141236   8 C  px              366     -0.141225   9 C  px        
   320      0.139770   8 C  px              363     -0.139773   9 C  px        
   231     -0.120005   6 C  px              274      0.119996   7 C  px        
    59      0.111547   2 N  px              102     -0.111584   3 N  px        

 Vector   28  Occ=2.000000D+00  E=-4.695172D-01
              MO Center= -6.3D-04,  3.1D-10, -1.8D+00, r^2= 3.9D+00
   Bfn.  Coefficient  Atom+Function         Bfn.  Coefficient  Atom+Function  
  ----- ------------  ---------------      ----- ------------  ---------------
   319      0.211102   8 C  pz              362     -0.211204   9 C  pz        
   233     -0.189967   6 C  pz              276      0.190091   7 C  pz        
   416     -0.154506  12 H  s               425      0.154543  13 H  s         
   325      0.134199   8 C  pz              368     -0.134217   9 C  pz        
   322      0.126795   8 C  pz              365     -0.126864   9 C  pz        

 Vector   29  Occ=2.000000D+00  E=-4.657116D-01
              MO Center=  7.5D-04,  5.7D-09,  1.6D+00, r^2= 3.6D+00
   Bfn.  Coefficient  Atom+Function         Bfn.  Coefficient  Atom+Function  
  ----- ------------  ---------------      ----- ------------  ---------------
     4      0.282866   1 S  s                18      0.253330   1 S  pz        
    21      0.198184   1 S  pz               61     -0.190905   2 N  pz        
   104     -0.190748   3 N  pz               15      0.185629   1 S  pz        
     3     -0.163708   1 S  s               147      0.138513   4 C  pz        
   190      0.138301   5 C  pz                9     -0.135235   1 S  pz        

 Vector   30  Occ=2.000000D+00  E=-4.609630D-01
              MO Center= -6.0D-05, -1.9D-09, -8.3D-01, r^2= 5.0D+00
   Bfn.  Coefficient  Atom+Function         Bfn.  Coefficient  Atom+Function  
  ----- ------------  ---------------      ----- ------------  ---------------
    17      0.232208   1 S  py              318     -0.186381   8 C  py        
   361     -0.186391   9 C  py              321     -0.162657   8 C  py        
   364     -0.162664   9 C  py              232     -0.147050   6 C  py        
   275     -0.147061   7 C  py              235     -0.124709   6 C  py        
   278     -0.124718   7 C  py               20      0.120613   1 S  py        

 Vector   31  Occ=2.000000D+00  E=-4.300399D-01
              MO Center=  8.3D-05,  1.8D-09,  4.0D-01, r^2= 3.3D+00
   Bfn.  Coefficient  Atom+Function         Bfn.  Coefficient  Atom+Function  
  ----- ------------  ---------------      ----- ------------  ---------------
    60      0.229912   2 N  py              103     -0.229897   3 N  py        
    63      0.207489   2 N  py              106     -0.207475   3 N  py        
   146      0.154538   4 C  py              189     -0.154530   5 C  py        
   149      0.128629   4 C  py              192     -0.128622   5 C  py        
   232      0.121988   6 C  py              275     -0.121984   7 C  py        

 Vector   32  Occ=2.000000D+00  E=-4.089613D-01
              MO Center= -5.7D-04,  2.2D-10,  2.5D-01, r^2= 4.4D+00
   Bfn.  Coefficient  Atom+Function         Bfn.  Coefficient  Atom+Function  
  ----- ------------  ---------------      ----- ------------  ---------------
   145      0.208558   4 C  px              188     -0.208554   5 C  px        
    59     -0.162732   2 N  px              102      0.162940   3 N  px        
   148      0.141399   4 C  px              191     -0.141417   5 C  px        
    18     -0.128269   1 S  pz              151      0.125849   4 C  px        
   194     -0.125910   5 C  px               62     -0.122976   2 N  px        

 Vector   33  Occ=2.000000D+00  E=-3.907318D-01
              MO Center=  6.9D-04, -1.4D-09,  1.2D+00, r^2= 3.1D+00
   Bfn.  Coefficient  Atom+Function         Bfn.  Coefficient  Atom+Function  
  ----- ------------  ---------------      ----- ------------  ---------------
    59      0.299245   2 N  px              102      0.299124   3 N  px        
    58      0.234432   2 N  s               101     -0.234353   3 N  s         
    62      0.217943   2 N  px              105      0.217851   3 N  px        
    65      0.170659   2 N  px              108      0.170581   3 N  px        
    57      0.162969   2 N  s               100     -0.162940   3 N  s         

 Vector   34  Occ=2.000000D+00  E=-3.492584D-01
              MO Center=  2.3D-06,  5.1D-10,  7.2D-02, r^2= 5.1D+00
   Bfn.  Coefficient  Atom+Function         Bfn.  Coefficient  Atom+Function  
  ----- ------------  ---------------      ----- ------------  ---------------
    17      0.329171   1 S  py               20      0.215950   1 S  py        
   146     -0.193402   4 C  py              189     -0.193388   5 C  py        
   149     -0.167845   4 C  py              192     -0.167830   5 C  py        
   318      0.165925   8 C  py              361      0.165938   9 C  py        
    14      0.162665   1 S  py              321      0.144939   8 C  py        

 Vector   35  Occ=2.000000D+00  E=-3.323340D-01
              MO Center=  1.7D-05,  3.5D-09, -7.7D-01, r^2= 4.5D+00
   Bfn.  Coefficient  Atom+Function         Bfn.  Coefficient  Atom+Function  
  ----- ------------  ---------------      ----- ------------  ---------------
   232      0.220212   6 C  py              275     -0.220217   7 C  py        
   235      0.192059   6 C  py              278     -0.192066   7 C  py        
    60     -0.173228   2 N  py              103      0.173238   3 N  py        
    63     -0.155891   2 N  py              106      0.155899   3 N  py        
   318      0.142728   8 C  py              361     -0.142688   9 C  py        

 Vector   36  Occ=0.000000D+00  E=-3.117540D-02
              MO Center=  1.8D-05, -6.9D-09,  3.7D-01, r^2= 5.7D+00
   Bfn.  Coefficient  Atom+Function         Bfn.  Coefficient  Atom+Function  
  ----- ------------  ---------------      ----- ------------  ---------------
    17      0.279482   1 S  py               20      0.275067   1 S  py        
    60     -0.216549   2 N  py              103     -0.216544   3 N  py        
    63     -0.204323   2 N  py              106     -0.204317   3 N  py        
   232      0.148743   6 C  py              275      0.148730   7 C  py        
   235      0.141406   6 C  py              278      0.141395   7 C  py        

 Vector   37  Occ=0.000000D+00  E= 5.342987D-02
              MO Center= -2.7D-04, -1.1D-08, -2.3D+00, r^2= 1.6D+01
   Bfn.  Coefficient  Atom+Function         Bfn.  Coefficient  Atom+Function  
  ----- ------------  ---------------      ----- ------------  ---------------
     6      7.380475   1 S  s                 5     -4.155678   1 S  s         
   230      3.013018   6 C  s               273      3.013555   7 C  s         
   144     -2.617888   4 C  s               187     -2.618316   5 C  s         
   316      2.323833   8 C  s               359      2.324017   9 C  s         
    37     -1.599874   1 S  dxx              40     -1.533853   1 S  dyy       

 Vector   38  Occ=0.000000D+00  E= 5.448210D-02
              MO Center= -3.6D-04,  5.9D-09,  4.8D+00, r^2= 9.4D+00
   Bfn.  Coefficient  Atom+Function         Bfn.  Coefficient  Atom+Function  
  ----- ------------  ---------------      ----- ------------  ---------------
   144     -4.734267   4 C  s               187     -4.733771   5 C  s         
     5      4.570187   1 S  s                 6      2.400519   1 S  s         
    24     -2.384943   1 S  pz               21     -1.860561   1 S  pz        
   417      1.768700  12 H  s               426      1.768444  13 H  s         
   168      1.677698   4 C  dxz             211     -1.677485   5 C  dxz       

 Vector   39  Occ=0.000000D+00  E= 5.750631D-02
              MO Center=  4.4D-04,  1.4D-09,  2.8D+00, r^2= 1.3D+01
   Bfn.  Coefficient  Atom+Function         Bfn.  Coefficient  Atom+Function  
  ----- ------------  ---------------      ----- ------------  ---------------
    58      3.882931   2 N  s               101     -3.883008   3 N  s         
   230     -1.990537   6 C  s               273      1.990297   7 C  s         
   144      1.839709   4 C  s               187     -1.840482   5 C  s         
    22     -1.797308   1 S  px               19     -1.474095   1 S  px        
   254      1.448253   6 C  dxz             297      1.448174   7 C  dxz       

 Vector   40  Occ=0.000000D+00  E= 6.237195D-02
              MO Center= -4.5D-05, -7.9D-10, -1.1D+00, r^2= 4.7D+00
   Bfn.  Coefficient  Atom+Function         Bfn.  Coefficient  Atom+Function  
  ----- ------------  ---------------      ----- ------------  ---------------
   152      0.485204   4 C  py              195     -0.485077   5 C  py        
   167     -0.298975   4 C  dxy             210     -0.299453   5 C  dxy       
   253      0.252733   6 C  dxy             296      0.252404   7 C  dxy       
   321     -0.239807   8 C  py              364      0.239603   9 C  py        
   318     -0.222500   8 C  py              361      0.222319   9 C  py        

 Vector   41  Occ=0.000000D+00  E= 6.384823D-02
              MO Center=  1.4D-05, -2.3D-09, -4.8D-01, r^2= 5.3D+00
   Bfn.  Coefficient  Atom+Function         Bfn.  Coefficient  Atom+Function  
  ----- ------------  ---------------      ----- ------------  ---------------
   167      0.256570   4 C  dxy             210     -0.256007   5 C  dxy       
   235      0.220976   6 C  py              278      0.221079   7 C  py        
   232      0.197740   6 C  py              275      0.197855   7 C  py        
   170     -0.170474   4 C  dyz             213     -0.170320   5 C  dyz       
   149     -0.167561   4 C  py              146     -0.166499   4 C  py        

 Vector   42  Occ=0.000000D+00  E= 7.447558D-02
              MO Center=  4.9D-05, -1.6D-09, -1.8D+00, r^2= 1.8D+01
   Bfn.  Coefficient  Atom+Function         Bfn.  Coefficient  Atom+Function  
  ----- ------------  ---------------      ----- ------------  ---------------
   230      5.118278   6 C  s               273     -5.114320   7 C  s         
   316      3.873583   8 C  s               359     -3.877782   9 C  s         
   144     -3.837224   4 C  s               187      3.836904   5 C  s         
   417      1.767957  12 H  s               426     -1.767044  13 H  s         
   343     -1.404679   8 C  dzz             386      1.405592   9 C  dzz       

 Vector   43  Occ=0.000000D+00  E= 7.513887D-02
              MO Center=  1.3D-05,  1.1D-07, -9.9D-01, r^2= 1.9D+01
   Bfn.  Coefficient  Atom+Function         Bfn.  Coefficient  Atom+Function  
  ----- ------------  ---------------      ----- ------------  ---------------
     6      9.997506   1 S  s                 5     -4.035906   1 S  s         
   316     -4.020025   8 C  s               359     -4.015845   9 C  s         
   230      3.641908   6 C  s               273      3.647571   7 C  s         
    58     -2.346470   2 N  s               101     -2.345627   3 N  s         
    40     -2.001285   1 S  dyy              42     -1.925627   1 S  dzz       

 Vector   44  Occ=0.000000D+00  E= 7.863897D-02
              MO Center= -8.6D-06, -8.1D-08,  2.4D+00, r^2= 1.5D+01
   Bfn.  Coefficient  Atom+Function         Bfn.  Coefficient  Atom+Function  
  ----- ------------  ---------------      ----- ------------  ---------------
    23      1.386452   1 S  py              170     -0.977810   4 C  dyz       
   213     -0.977806   5 C  dyz             253      0.725419   6 C  dxy       
   296     -0.725408   7 C  dxy             238     -0.627322   6 C  py        
   281     -0.627326   7 C  py               41     -0.325181   1 S  dyz       
    66      0.300244   2 N  py              109      0.300233   3 N  py        

 Vector   45  Occ=0.000000D+00  E= 9.900502D-02
              MO Center=  1.7D-05,  1.9D-09,  1.1D+00, r^2= 1.9D+01
   Bfn.  Coefficient  Atom+Function         Bfn.  Coefficient  Atom+Function  
  ----- ------------  ---------------      ----- ------------  ---------------
   316      6.744706   8 C  s               359     -6.745066   9 C  s         
    58      5.487846   2 N  s               101     -5.487882   3 N  s         
   144     -1.880325   4 C  s               187      1.879553   5 C  s         
    22     -1.740708   1 S  px              254      1.589313   6 C  dxz       
   297      1.589199   7 C  dxz              39      1.428023   1 S  dxz       

 Vector   46  Occ=0.000000D+00  E= 9.998696D-02
              MO Center= -1.1D-05, -9.0D-09, -1.5D+00, r^2= 1.9D+01
   Bfn.  Coefficient  Atom+Function         Bfn.  Coefficient  Atom+Function  
  ----- ------------  ---------------      ----- ------------  ---------------
   230     10.355156   6 C  s               273     10.355244   7 C  s         
   144     -6.147630   4 C  s               187     -6.147947   5 C  s         
   316     -5.307001   8 C  s               359     -5.306962   9 C  s         
     6     -4.082595   1 S  s                58      2.762179   2 N  s         
   101      2.762685   3 N  s               417     -2.720620  12 H  s         

 Vector   47  Occ=0.000000D+00  E= 1.213836D-01
              MO Center=  5.5D-05,  3.6D-09, -9.9D-01, r^2= 2.5D+01
   Bfn.  Coefficient  Atom+Function         Bfn.  Coefficient  Atom+Function  
  ----- ------------  ---------------      ----- ------------  ---------------
   316     12.813822   8 C  s               359    -12.813462   9 C  s         
   230     -9.828575   6 C  s               273      9.827954   7 C  s         
   168      3.863557   4 C  dxz             211      3.863805   5 C  dxz       
    58     -3.569952   2 N  s               101      3.570268   3 N  s         
   417     -3.182697  12 H  s               426      3.182769  13 H  s         

 Vector   48  Occ=0.000000D+00  E= 1.271496D-01
              MO Center= -3.6D-05,  9.4D-09, -9.4D-01, r^2= 1.5D+01
   Bfn.  Coefficient  Atom+Function         Bfn.  Coefficient  Atom+Function  
  ----- ------------  ---------------      ----- ------------  ---------------
     6     12.049805   1 S  s                 5    -10.002094   1 S  s         
   417     -7.796496  12 H  s               426     -7.796693  13 H  s         
   315      6.458029   8 C  s               358      6.458087   9 C  s         
   399     -4.659072  10 H  s               408     -4.659201  11 H  s         
   229      4.024639   6 C  s               272      4.024729   7 C  s         

 Vector   49  Occ=0.000000D+00  E= 1.433858D-01
              MO Center= -2.4D-05,  2.0D-09,  2.8D+00, r^2= 1.3D+01
   Bfn.  Coefficient  Atom+Function         Bfn.  Coefficient  Atom+Function  
  ----- ------------  ---------------      ----- ------------  ---------------
     6     26.057910   1 S  s                 5     -9.585698   1 S  s         
   144     -8.954722   4 C  s               187     -8.955335   5 C  s         
    40     -5.004787   1 S  dyy              58     -4.657516   2 N  s         
   101     -4.656690   3 N  s                37     -4.339334   1 S  dxx       
   230      3.975349   6 C  s               273      3.975957   7 C  s         

 Vector   50  Occ=0.000000D+00  E= 1.673372D-01
              MO Center= -7.2D-05,  2.8D-09, -5.3D-01, r^2= 1.8D+01
   Bfn.  Coefficient  Atom+Function         Bfn.  Coefficient  Atom+Function  
  ----- ------------  ---------------      ----- ------------  ---------------
   144     27.915476   4 C  s               187    -27.915414   5 C  s         
   399     12.496202  10 H  s               408    -12.495720  11 H  s         
   230     -8.356689   6 C  s               273      8.356857   7 C  s         
   316      7.163807   8 C  s               359     -7.163877   9 C  s         
    58     -5.306531   2 N  s               101      5.305374   3 N  s         

 Vector   51  Occ=0.000000D+00  E= 1.723892D-01
              MO Center=  1.8D-05, -5.3D-09,  3.4D-01, r^2= 1.7D+01
   Bfn.  Coefficient  Atom+Function         Bfn.  Coefficient  Atom+Function  
  ----- ------------  ---------------      ----- ------------  ---------------
    58      9.058096   2 N  s               101      9.059523   3 N  s         
     5      7.926637   1 S  s                 6     -6.150706   1 S  s         
   417      3.895493  12 H  s               426      3.895268  13 H  s         
   171     -2.634112   4 C  dzz             214     -2.634240   5 C  dzz       
   399     -2.568085  10 H  s               408     -2.570050  11 H  s         

 Vector   52  Occ=0.000000D+00  E= 1.798021D-01
              MO Center= -7.5D-03,  1.4D-08, -3.0D+00, r^2= 9.2D+00
   Bfn.  Coefficient  Atom+Function         Bfn.  Coefficient  Atom+Function  
  ----- ------------  ---------------      ----- ------------  ---------------
   299      2.670909   7 C  dyz             256      2.654760   6 C  dyz       
   152     -2.102079   4 C  py              195     -2.088053   5 C  py        
   324      2.004670   8 C  py              367      2.010445   9 C  py        
   210      1.913025   5 C  dxy             167     -1.876097   4 C  dxy       
   339      1.451588   8 C  dxy             382     -1.454794   9 C  dxy       

 Vector   53  Occ=0.000000D+00  E= 1.799720D-01
              MO Center=  7.5D-03,  1.2D-08, -7.5D-01, r^2= 1.1D+01
   Bfn.  Coefficient  Atom+Function         Bfn.  Coefficient  Atom+Function  
  ----- ------------  ---------------      ----- ------------  ---------------
   167      5.625388   4 C  dxy             210      5.612968   5 C  dxy       
   238     -2.718059   6 C  py              281      2.713115   7 C  py        
   256     -2.464652   6 C  dyz             299      2.447180   7 C  dyz       
   170     -2.395436   4 C  dyz             213      2.392505   5 C  dyz       
   195      2.140101   5 C  py              152     -2.126367   4 C  py        

 Vector   54  Occ=0.000000D+00  E= 1.888556D-01
              MO Center= -9.7D-05, -2.1D-09, -1.0D+00, r^2= 1.7D+01
   Bfn.  Coefficient  Atom+Function         Bfn.  Coefficient  Atom+Function  
  ----- ------------  ---------------      ----- ------------  ---------------
   144    -13.490926   4 C  s               187    -13.492041   5 C  s         
     6     12.276636   1 S  s               417      9.888162  12 H  s         
   426      9.889612  13 H  s               315     -7.207291   8 C  s         
   358     -7.207694   9 C  s                 5     -6.286893   1 S  s         
    57     -5.109876   2 N  s               100     -5.109295   3 N  s         

 Vector   55  Occ=0.000000D+00  E= 1.953735D-01
              MO Center=  1.6D-04,  3.5D-08, -1.5D+00, r^2= 1.9D+01
   Bfn.  Coefficient  Atom+Function         Bfn.  Coefficient  Atom+Function  
  ----- ------------  ---------------      ----- ------------  ---------------
   417     14.915491  12 H  s               426    -14.914249  13 H  s         
   144    -12.033161   4 C  s               187     12.031883   5 C  s         
   230     10.082582   6 C  s               273    -10.081995   7 C  s         
   399      9.016329  10 H  s               408     -9.015253  11 H  s         
    57      6.345471   2 N  s               100     -6.346080   3 N  s         

 Vector   56  Occ=0.000000D+00  E= 2.113912D-01
              MO Center=  2.2D-05, -2.8D-08, -1.3D+00, r^2= 1.1D+01
   Bfn.  Coefficient  Atom+Function         Bfn.  Coefficient  Atom+Function  
  ----- ------------  ---------------      ----- ------------  ---------------
   167      3.957898   4 C  dxy             210      3.957844   5 C  dxy       
   170     -2.394484   4 C  dyz             213      2.394520   5 C  dyz       
   238     -2.251181   6 C  py              281      2.251276   7 C  py        
   256     -1.945242   6 C  dyz             299      1.945086   7 C  dyz       
   324     -1.748203   8 C  py              367      1.748024   9 C  py        

 Vector   57  Occ=0.000000D+00  E= 2.138393D-01
              MO Center= -4.2D-05, -1.3D-08, -7.4D-01, r^2= 1.9D+01
   Bfn.  Coefficient  Atom+Function         Bfn.  Coefficient  Atom+Function  
  ----- ------------  ---------------      ----- ------------  ---------------
   417     10.735263  12 H  s               426     10.734780  13 H  s         
   399     -8.794760  10 H  s               408     -8.794521  11 H  s         
    58     -6.706709   2 N  s               101     -6.707599   3 N  s         
   166      6.614882   4 C  dxx             209      6.614933   5 C  dxx       
     6      6.448006   1 S  s               257     -6.151336   6 C  dzz       

 Vector   58  Occ=0.000000D+00  E= 2.299079D-01
              MO Center= -1.5D-04,  8.7D-08,  1.4D+00, r^2= 1.6D+01
   Bfn.  Coefficient  Atom+Function         Bfn.  Coefficient  Atom+Function  
  ----- ------------  ---------------      ----- ------------  ---------------
     5     17.395630   1 S  s                 6    -15.551137   1 S  s         
    42      6.106573   1 S  dzz              58      5.152903   2 N  s         
   101      5.154785   3 N  s                37      4.517283   1 S  dxx       
    40      4.426255   1 S  dyy             144     -4.003012   4 C  s         
   187     -4.004425   5 C  s                 4     -3.720006   1 S  s         

 Vector   59  Occ=0.000000D+00  E= 2.301811D-01
              MO Center= -8.6D-07, -1.3D-07,  1.4D+00, r^2= 1.1D+01
   Bfn.  Coefficient  Atom+Function         Bfn.  Coefficient  Atom+Function  
  ----- ------------  ---------------      ----- ------------  ---------------
    41      2.308343   1 S  dyz             238      1.437562   6 C  py        
   281      1.437439   7 C  py              324     -1.152944   8 C  py        
   367     -1.153032   9 C  py               20     -0.817146   1 S  py        
   170      0.796261   4 C  dyz             213      0.796035   5 C  dyz       
   339     -0.709077   8 C  dxy             382      0.709036   9 C  dxy       

 Vector   60  Occ=0.000000D+00  E= 2.419990D-01
              MO Center=  1.1D-04, -2.1D-08,  7.0D-02, r^2= 1.8D+01
   Bfn.  Coefficient  Atom+Function         Bfn.  Coefficient  Atom+Function  
  ----- ------------  ---------------      ----- ------------  ---------------
    58     12.740907   2 N  s               101    -12.740300   3 N  s         
   254      7.208360   6 C  dxz             297      7.208005   7 C  dxz       
   417      4.616060  12 H  s               426     -4.616132  13 H  s         
   166     -4.366579   4 C  dxx             209      4.365936   5 C  dxx       
   151     -3.951406   4 C  px              194     -3.951129   5 C  px        

 Vector   61  Occ=0.000000D+00  E= 2.456502D-01
              MO Center= -1.4D-04, -1.5D-09, -1.4D+00, r^2= 1.6D+01
   Bfn.  Coefficient  Atom+Function         Bfn.  Coefficient  Atom+Function  
  ----- ------------  ---------------      ----- ------------  ---------------
     6     10.198190   1 S  s               230     -7.474769   6 C  s         
   273     -7.475241   7 C  s               417      6.572574  12 H  s         
   426      6.572281  13 H  s                 5     -5.469213   1 S  s         
    57     -4.318050   2 N  s               100     -4.318066   3 N  s         
   315     -4.174109   8 C  s               358     -4.174161   9 C  s         

 Vector   62  Occ=0.000000D+00  E= 2.522590D-01
              MO Center=  1.3D-04, -1.5D-08,  4.9D-01, r^2= 1.6D+01
   Bfn.  Coefficient  Atom+Function         Bfn.  Coefficient  Atom+Function  
  ----- ------------  ---------------      ----- ------------  ---------------
   399     11.371863  10 H  s               408     11.370505  11 H  s         
   230      7.078561   6 C  s               273      7.075931   7 C  s         
     5      6.825218   1 S  s               166     -5.278234   4 C  dxx       
   209     -5.279075   5 C  dxx             257      4.525732   6 C  dzz       
   300      4.527848   7 C  dzz             168      4.331626   4 C  dxz       

 Vector   63  Occ=0.000000D+00  E= 2.529296D-01
              MO Center= -3.7D-05, -5.7D-08, -9.4D-01, r^2= 1.9D+01
   Bfn.  Coefficient  Atom+Function         Bfn.  Coefficient  Atom+Function  
  ----- ------------  ---------------      ----- ------------  ---------------
   144     22.653261   4 C  s               187    -22.653969   5 C  s         
    58    -16.757289   2 N  s               101     16.755679   3 N  s         
   316    -11.583360   8 C  s               359     11.582191   9 C  s         
   417     -9.590631  12 H  s               426      9.590821  13 H  s         
   171      8.383225   4 C  dzz             214     -8.383686   5 C  dzz       

 Vector   64  Occ=0.000000D+00  E= 2.566976D-01
              MO Center= -4.1D-05,  1.6D-08,  1.3D+00, r^2= 9.5D+00
   Bfn.  Coefficient  Atom+Function         Bfn.  Coefficient  Atom+Function  
  ----- ------------  ---------------      ----- ------------  ---------------
    38      1.945639   1 S  dxy             167      1.910936   4 C  dxy       
   210      1.911154   5 C  dxy             152     -1.570485   4 C  py        
   195      1.570372   5 C  py              253     -1.087537   6 C  dxy       
   296     -1.087939   7 C  dxy             170      1.077994   4 C  dyz       
   213     -1.078405   5 C  dyz              66     -0.907462   2 N  py        

 Vector   65  Occ=0.000000D+00  E= 2.634259D-01
              MO Center= -2.7D-05,  7.9D-08, -2.4D+00, r^2= 1.5D+01
   Bfn.  Coefficient  Atom+Function         Bfn.  Coefficient  Atom+Function  
  ----- ------------  ---------------      ----- ------------  ---------------
   230     13.310761   6 C  s               273     13.311292   7 C  s         
   144     -9.089217   4 C  s               187     -9.091219   5 C  s         
   316     -9.067937   8 C  s               359     -9.067892   9 C  s         
     5     -8.867305   1 S  s                 6      7.550119   1 S  s         
   399      4.814231  10 H  s               408      4.814229  11 H  s         

 Vector   66  Occ=0.000000D+00  E= 2.643018D-01
              MO Center= -6.1D-05, -2.8D-08, -5.2D-01, r^2= 1.4D+01
   Bfn.  Coefficient  Atom+Function         Bfn.  Coefficient  Atom+Function  
  ----- ------------  ---------------      ----- ------------  ---------------
   238      2.012365   6 C  py              281      2.012612   7 C  py        
   404     -1.560934  10 H  py              413     -1.560892  11 H  py        
   324     -1.454948   8 C  py              367     -1.455367   9 C  py        
    41     -1.323316   1 S  dyz             339     -1.241467   8 C  dxy       
   382      1.241491   9 C  dxy             253      1.101785   6 C  dxy       

 Vector   67  Occ=0.000000D+00  E= 2.687603D-01
              MO Center=  5.4D-06, -5.7D-09, -1.7D-01, r^2= 1.6D+01
   Bfn.  Coefficient  Atom+Function         Bfn.  Coefficient  Atom+Function  
  ----- ------------  ---------------      ----- ------------  ---------------
   230      7.336268   6 C  s               273     -7.337088   7 C  s         
   171     -4.586416   4 C  dzz             214      4.586510   5 C  dzz       
   144     -4.431262   4 C  s               187      4.431801   5 C  s         
    19      4.267538   1 S  px              340      4.210863   8 C  dxz       
   383      4.210747   9 C  dxz              58      3.872400   2 N  s         

 Vector   68  Occ=0.000000D+00  E= 2.913005D-01
              MO Center= -9.5D-05,  7.0D-08, -1.1D+00, r^2= 1.4D+01
   Bfn.  Coefficient  Atom+Function         Bfn.  Coefficient  Atom+Function  
  ----- ------------  ---------------      ----- ------------  ---------------
   324      3.905036   8 C  py              367     -3.904459   9 C  py        
   167      3.165361   4 C  dxy             210      3.165468   5 C  dxy       
   238     -2.040445   6 C  py              281      2.039252   7 C  py        
   339     -1.964326   8 C  dxy             382     -1.964607   9 C  dxy       
    38     -1.656523   1 S  dxy             342      1.568479   8 C  dyz       

 Vector   69  Occ=0.000000D+00  E= 2.921064D-01
              MO Center= -2.8D-05, -2.4D-07,  2.0D-01, r^2= 2.0D+01
   Bfn.  Coefficient  Atom+Function         Bfn.  Coefficient  Atom+Function  
  ----- ------------  ---------------      ----- ------------  ---------------
   230     13.512746   6 C  s               273    -13.512590   7 C  s         
   316    -12.916759   8 C  s               359     12.915957   9 C  s         
    57     11.234941   2 N  s               100    -11.233935   3 N  s         
   168     -8.911027   4 C  dxz             211     -8.910979   5 C  dxz       
    19     -6.650556   1 S  px               39      5.104241   1 S  dxz       

 Vector   70  Occ=0.000000D+00  E= 2.932727D-01
              MO Center=  1.7D-04, -9.7D-08,  4.7D-01, r^2= 1.3D+01
   Bfn.  Coefficient  Atom+Function         Bfn.  Coefficient  Atom+Function  
  ----- ------------  ---------------      ----- ------------  ---------------
   170      3.768949   4 C  dyz             213      3.768712   5 C  dyz       
   253     -3.039673   6 C  dxy             296      3.040079   7 C  dxy       
   238      2.718661   6 C  py              281      2.719558   7 C  py        
    66     -1.357198   2 N  py              109     -1.356958   3 N  py        
   324     -1.091230   8 C  py              367     -1.092785   9 C  py        

 Vector   71  Occ=0.000000D+00  E= 2.986839D-01
              MO Center= -2.9D-05,  2.7D-08, -4.0D-01, r^2= 1.5D+01
   Bfn.  Coefficient  Atom+Function         Bfn.  Coefficient  Atom+Function  
  ----- ------------  ---------------      ----- ------------  ---------------
     6     22.529338   1 S  s                 5    -19.052541   1 S  s         
   417    -14.134246  12 H  s               426    -14.134912  13 H  s         
   315     11.313871   8 C  s               358     11.313748   9 C  s         
   399     -8.940928  10 H  s               408     -8.943157  11 H  s         
   229      8.133343   6 C  s               272      8.133304   7 C  s         

 Vector   72  Occ=0.000000D+00  E= 3.014901D-01
              MO Center=  2.8D-05,  1.3D-07, -1.7D+00, r^2= 1.6D+01
   Bfn.  Coefficient  Atom+Function         Bfn.  Coefficient  Atom+Function  
  ----- ------------  ---------------      ----- ------------  ---------------
   144     18.538936   4 C  s               187    -18.537600   5 C  s         
   316     14.542969   8 C  s               359    -14.542386   9 C  s         
   171     10.729438   4 C  dzz             214    -10.729649   5 C  dzz       
   230    -10.482010   6 C  s               273     10.481888   7 C  s         
    57     -8.287075   2 N  s               100      8.286767   3 N  s         

 Vector   73  Occ=0.000000D+00  E= 3.026654D-01
              MO Center=  3.9D-05,  7.6D-09, -1.1D-01, r^2= 1.6D+01
   Bfn.  Coefficient  Atom+Function         Bfn.  Coefficient  Atom+Function  
  ----- ------------  ---------------      ----- ------------  ---------------
     6     18.705300   1 S  s               254      5.298580   6 C  dxz       
   297     -5.298309   7 C  dxz             417     -5.011208  12 H  s         
   426     -5.010979  13 H  s                40     -4.914004   1 S  dyy       
   144     -4.849396   4 C  s               187     -4.851348   5 C  s         
     5     -4.328702   1 S  s               323      3.821309   8 C  px        

 Vector   74  Occ=0.000000D+00  E= 3.226836D-01
              MO Center=  3.2D-06, -5.4D-08, -9.2D-01, r^2= 1.6D+01
   Bfn.  Coefficient  Atom+Function         Bfn.  Coefficient  Atom+Function  
  ----- ------------  ---------------      ----- ------------  ---------------
   417      7.655686  12 H  s               426      7.655489  13 H  s         
   399      6.258344  10 H  s               408      6.257480  11 H  s         
   315     -6.028641   8 C  s               358     -6.028465   9 C  s         
     5     -5.426789   1 S  s               237     -4.853686   6 C  px        
   280      4.853286   7 C  px              144     -4.357186   4 C  s         

 Vector   75  Occ=0.000000D+00  E= 3.260726D-01
              MO Center= -1.3D-05,  3.4D-07, -1.2D+00, r^2= 6.6D+00
   Bfn.  Coefficient  Atom+Function         Bfn.  Coefficient  Atom+Function  
  ----- ------------  ---------------      ----- ------------  ---------------
   256     -1.997212   6 C  dyz             299     -1.997355   7 C  dyz       
   152      1.839716   4 C  py              195      1.839571   5 C  py        
   170     -1.598897   4 C  dyz             213     -1.598973   5 C  dyz       
   167      1.183208   4 C  dxy             210     -1.183555   5 C  dxy       
   238     -0.886621   6 C  py              281     -0.886639   7 C  py        

 Vector   76  Occ=0.000000D+00  E= 3.281277D-01
              MO Center= -4.1D-05, -2.8D-07,  8.2D-01, r^2= 1.3D+01
   Bfn.  Coefficient  Atom+Function         Bfn.  Coefficient  Atom+Function  
  ----- ------------  ---------------      ----- ------------  ---------------
     5     13.298422   1 S  s                58    -11.327580   2 N  s         
   101    -11.327493   3 N  s               417      7.612110  12 H  s         
   426      7.611645  13 H  s               315     -4.416654   8 C  s         
   358     -4.416488   9 C  s                 6      3.813619   1 S  s         
   325      3.437574   8 C  pz              368      3.437395   9 C  pz        

 Vector   77  Occ=0.000000D+00  E= 3.349636D-01
              MO Center=  9.8D-05, -6.0D-08, -7.6D-01, r^2= 1.2D+01
   Bfn.  Coefficient  Atom+Function         Bfn.  Coefficient  Atom+Function  
  ----- ------------  ---------------      ----- ------------  ---------------
   144     19.140994   4 C  s               187    -19.140959   5 C  s         
   399     17.497558  10 H  s               408    -17.496774  11 H  s         
   229     -7.892433   6 C  s               272      7.891949   7 C  s         
   417      7.116499  12 H  s               426     -7.115867  13 H  s         
   237     -7.058002   6 C  px              280     -7.057785   7 C  px        

 Vector   78  Occ=0.000000D+00  E= 3.504592D-01
              MO Center=  3.8D-05, -2.7D-08, -9.4D-01, r^2= 1.5D+01
   Bfn.  Coefficient  Atom+Function         Bfn.  Coefficient  Atom+Function  
  ----- ------------  ---------------      ----- ------------  ---------------
   170      5.243574   4 C  dyz             213     -5.243458   5 C  dyz       
   238      3.899345   6 C  py              281     -3.899209   7 C  py        
   152     -3.733105   4 C  py              195      3.733126   5 C  py        
   167      2.705440   4 C  dxy             210      2.705400   5 C  dxy       
   324     -2.310686   8 C  py              367      2.310593   9 C  py        

 Vector   79  Occ=0.000000D+00  E= 3.547059D-01
              MO Center= -2.0D-04,  7.3D-08, -3.8D-01, r^2= 1.7D+01
   Bfn.  Coefficient  Atom+Function         Bfn.  Coefficient  Atom+Function  
  ----- ------------  ---------------      ----- ------------  ---------------
   144     23.003306   4 C  s               187    -23.010000   5 C  s         
   399     12.507343  10 H  s               408    -12.504802  11 H  s         
    58     -7.440737   2 N  s               101      7.440142   3 N  s         
   230     -6.216876   6 C  s               273      6.219516   7 C  s         
   229     -5.572550   6 C  s               272      5.572334   7 C  s         

 Vector   80  Occ=0.000000D+00  E= 3.565954D-01
              MO Center= -5.6D-05,  2.0D-08, -5.6D-01, r^2= 1.4D+01
   Bfn.  Coefficient  Atom+Function         Bfn.  Coefficient  Atom+Function  
  ----- ------------  ---------------      ----- ------------  ---------------
     6     25.028281   1 S  s               144    -17.445342   4 C  s         
   187    -17.441162   5 C  s                 5    -16.333718   1 S  s         
   417     12.565622  12 H  s               426     12.570540  13 H  s         
   315     -8.857230   8 C  s               358     -8.859754   9 C  s         
   168      8.139768   4 C  dxz             211     -8.140088   5 C  dxz       

 Vector   81  Occ=0.000000D+00  E= 3.627859D-01
              MO Center=  2.5D-04,  3.7D-08, -2.0D+00, r^2= 1.1D+01
   Bfn.  Coefficient  Atom+Function         Bfn.  Coefficient  Atom+Function  
  ----- ------------  ---------------      ----- ------------  ---------------
   417     16.566254  12 H  s               426    -16.559715  13 H  s         
   144    -11.593730   4 C  s               187     11.585692   5 C  s         
   323    -10.552278   8 C  px              366    -10.551723   9 C  px        
   254      9.088722   6 C  dxz             297      9.089536   7 C  dxz       
   340      9.101605   8 C  dxz             383      9.099971   9 C  dxz       

 Vector   82  Occ=0.000000D+00  E= 3.699672D-01
              MO Center= -1.2D-04,  7.3D-09, -9.7D-01, r^2= 1.5D+01
   Bfn.  Coefficient  Atom+Function         Bfn.  Coefficient  Atom+Function  
  ----- ------------  ---------------      ----- ------------  ---------------
     6     13.970785   1 S  s               417     10.179430  12 H  s         
   426     10.182936  13 H  s               315     -5.600210   8 C  s         
   358     -5.601250   9 C  s               144     -5.555334   4 C  s         
   187     -5.556595   5 C  s               325      5.497817   8 C  pz        
   368      5.499134   9 C  pz                5     -5.246614   1 S  s         

 Vector   83  Occ=0.000000D+00  E= 3.727226D-01
              MO Center= -1.8D-05,  5.8D-09, -7.0D-02, r^2= 1.1D+01
   Bfn.  Coefficient  Atom+Function         Bfn.  Coefficient  Atom+Function  
  ----- ------------  ---------------      ----- ------------  ---------------
   170      1.953461   4 C  dyz             213      1.953309   5 C  dyz       
    41      1.115951   1 S  dyz              17     -1.103916   1 S  py        
   342      0.976860   8 C  dyz             385      0.976800   9 C  dyz       
    66     -0.629921   2 N  py              109     -0.629920   3 N  py        
   256     -0.573454   6 C  dyz             299     -0.573669   7 C  dyz       

 Vector   84  Occ=0.000000D+00  E= 3.808281D-01
              MO Center= -5.9D-05, -2.3D-07, -9.7D-01, r^2= 1.6D+01
   Bfn.  Coefficient  Atom+Function         Bfn.  Coefficient  Atom+Function  
  ----- ------------  ---------------      ----- ------------  ---------------
   144     19.021268   4 C  s               187    -19.018145   5 C  s         
    57    -10.779368   2 N  s               100     10.780485   3 N  s         
   171      9.308878   4 C  dzz             214     -9.309087   5 C  dzz       
   343      8.329301   8 C  dzz             386     -8.329622   9 C  dzz       
   153      8.039430   4 C  pz              196     -8.039373   5 C  pz        

 Vector   85  Occ=0.000000D+00  E= 3.820540D-01
              MO Center=  1.1D-04, -5.9D-09, -3.0D-01, r^2= 1.2D+01
   Bfn.  Coefficient  Atom+Function         Bfn.  Coefficient  Atom+Function  
  ----- ------------  ---------------      ----- ------------  ---------------
   144      8.122617   4 C  s               187      8.131957   5 C  s         
   254      7.735089   6 C  dxz             297     -7.735478   7 C  dxz       
   230     -7.370035   6 C  s               273     -7.373747   7 C  s         
     6     -6.311185   1 S  s               340      5.585144   8 C  dxz       
   383     -5.584444   9 C  dxz             239      5.238709   6 C  pz        

 Vector   86  Occ=0.000000D+00  E= 3.899494D-01
              MO Center=  2.9D-05, -2.6D-08, -1.6D+00, r^2= 1.2D+01
   Bfn.  Coefficient  Atom+Function         Bfn.  Coefficient  Atom+Function  
  ----- ------------  ---------------      ----- ------------  ---------------
   167      9.300736   4 C  dxy             210      9.300675   5 C  dxy       
   170     -7.740261   4 C  dyz             213      7.740181   5 C  dyz       
   256     -5.868232   6 C  dyz             299      5.868071   7 C  dyz       
   342     -3.069575   8 C  dyz             385      3.069797   9 C  dyz       
   238     -2.595323   6 C  py              281      2.595130   7 C  py        

 Vector   87  Occ=0.000000D+00  E= 4.004112D-01
              MO Center= -3.4D-05,  1.2D-06, -1.0D+00, r^2= 1.5D+01
   Bfn.  Coefficient  Atom+Function         Bfn.  Coefficient  Atom+Function  
  ----- ------------  ---------------      ----- ------------  ---------------
   253      6.928866   6 C  dxy             296     -6.929024   7 C  dxy       
   342      4.514733   8 C  dyz             385      4.514667   9 C  dyz       
   238     -4.206973   6 C  py              281     -4.207108   7 C  py        
   152      3.750036   4 C  py              195      3.750110   5 C  py        
   170     -3.238151   4 C  dyz             213     -3.238468   5 C  dyz       

 Vector   88  Occ=0.000000D+00  E= 4.007983D-01
              MO Center= -1.5D-04, -1.2D-06, -2.1D+00, r^2= 1.3D+01
   Bfn.  Coefficient  Atom+Function         Bfn.  Coefficient  Atom+Function  
  ----- ------------  ---------------      ----- ------------  ---------------
   417     13.643359  12 H  s               426     13.632998  13 H  s         
   338     12.293903   8 C  dxx             381     12.292182   9 C  dxx       
   239     10.016498   6 C  pz              282     10.015435   7 C  pz        
   343     -9.264488   8 C  dzz             386     -9.262417   9 C  dzz       
     5     -9.167743   1 S  s               257     -7.609648   6 C  dzz       

 Vector   89  Occ=0.000000D+00  E= 4.021692D-01
              MO Center=  1.8D-04, -1.0D-07, -1.1D+00, r^2= 1.3D+01
   Bfn.  Coefficient  Atom+Function         Bfn.  Coefficient  Atom+Function  
[...]
     Transition Moments   XX -0.00002  XY  0.94303  XZ  0.00000
     Transition Moments   YY  0.00001  YZ  0.00012  ZZ  0.00005
     Dipole Oscillator Strength                    0.0000000004
     Electric Quadrupole                           0.0000000248
     Magnetic Dipole                               0.0000014586
     Total Oscillator Strength                     0.0000014838

     Occ.   33  a   ---  Virt.   36  a        0.97793
     Occ.   33  a   ---  Virt.   41  a       -0.18629
  ----------------------------------------------------------------------------
  Root   3 singlet a              0.173732803 a.u.                4.7275 eV 
  ----------------------------------------------------------------------------
     Transition Moments    X -0.00015   Y -0.00000   Z  1.49765
     Transition Moments   XX -0.65058  XY -0.00002  XZ -0.00021
     Transition Moments   YY  0.24188  YZ -0.00000  ZZ  1.71626
     Dipole Oscillator Strength                    0.2597817368
     Electric Quadrupole                           0.0000000399
     Magnetic Dipole                               0.0000000000
     Total Oscillator Strength                     0.2597817767

     Occ.   25  a   ---  Virt.   36  a        0.06119
     Occ.   30  a   ---  Virt.   41  a        0.05880
     Occ.   34  a   ---  Virt.   36  a       -0.89781
     Occ.   35  a   ---  Virt.   40  a        0.38567
  ----------------------------------------------------------------------------
  Root   4 singlet a              0.192813408 a.u.                5.2467 eV 
  ----------------------------------------------------------------------------
     Transition Moments    X -0.00000   Y  0.05116   Z -0.00000
     Transition Moments   XX  0.00000  XY -0.00032  XZ  0.00000
     Transition Moments   YY  0.00000  YZ  0.20252  ZZ -0.00000
     Dipole Oscillator Strength                    0.0003364839
     Electric Quadrupole                           0.0000000016
     Magnetic Dipole                               0.0000000062
     Total Oscillator Strength                     0.0003364917

     Occ.   27  a   ---  Virt.   36  a        0.09553
     Occ.   27  a   ---  Virt.   41  a       -0.08011
     Occ.   32  a   ---  Virt.   36  a       -0.98171
     Occ.   32  a   ---  Virt.   41  a        0.08678
     Occ.   33  a   ---  Virt.   40  a        0.05420
  ----------------------------------------------------------------------------
  Root   5 singlet a              0.235143671 a.u.                6.3986 eV 
  ----------------------------------------------------------------------------
     Transition Moments    X -0.00032   Y  0.00000   Z -1.55523
     Transition Moments   XX  0.71230  XY  0.00000  XZ  0.00031
     Transition Moments   YY -0.22764  YZ -0.00000  ZZ -0.89189
     Dipole Oscillator Strength                    0.3791681249
     Electric Quadrupole                           0.0000000450
     Magnetic Dipole                               0.0000000000
     Total Oscillator Strength                     0.3791681699

     Occ.   30  a   ---  Virt.   36  a        0.24307
     Occ.   31  a   ---  Virt.   40  a        0.19414
     Occ.   32  a   ---  Virt.   49  a        0.05589
     Occ.   33  a   ---  Virt.   39  a       -0.07519
     Occ.   33  a   ---  Virt.   45  a        0.05081
     Occ.   34  a   ---  Virt.   36  a        0.24519
     Occ.   34  a   ---  Virt.   41  a       -0.62689
     Occ.   34  a   ---  Virt.   44  a        0.12090
     Occ.   35  a   ---  Virt.   40  a        0.62233
  ----------------------------------------------------------------------------
  Root   6 singlet a              0.241350115 a.u.                6.5675 eV 
  ----------------------------------------------------------------------------
     Transition Moments    X  0.00003   Y  0.00004   Z  0.00000
     Transition Moments   XX -0.00000  XY  0.61358  XZ -0.00004
     Transition Moments   YY  0.00000  YZ  0.00025  ZZ  0.00000
     Dipole Oscillator Strength                    0.0000000004
     Electric Quadrupole                           0.0000000282
     Magnetic Dipole                               0.0000004074
     Total Oscillator Strength                     0.0000004360

     Occ.   30  a   ---  Virt.   39  a        0.17845
     Occ.   30  a   ---  Virt.   42  a        0.09509
     Occ.   30  a   ---  Virt.   45  a       -0.13494
     Occ.   34  a   ---  Virt.   39  a        0.73961
     Occ.   34  a   ---  Virt.   42  a        0.37493
     Occ.   34  a   ---  Virt.   45  a       -0.47167
     Occ.   34  a   ---  Virt.   47  a        0.12752
  ----------------------------------------------------------------------------
  Root   7 singlet a              0.245099937 a.u.                6.6695 eV 
  ----------------------------------------------------------------------------
     Transition Moments    X -0.00000   Y  0.00005   Z -0.00000
     Transition Moments   XX  0.00000  XY  1.32215  XZ  0.00000
     Transition Moments   YY -0.00000  YZ  0.00001  ZZ -0.00000
     Dipole Oscillator Strength                    0.0000000004
     Electric Quadrupole                           0.0000001371
     Magnetic Dipole                               0.0000003295
     Total Oscillator Strength                     0.0000004669

     Occ.   30  a   ---  Virt.   42  a        0.07227
     Occ.   31  a   ---  Virt.   37  a       -0.05501
     Occ.   31  a   ---  Virt.   43  a        0.08887
     Occ.   31  a   ---  Virt.   48  a        0.05557
     Occ.   34  a   ---  Virt.   42  a       -0.08392
     Occ.   35  a   ---  Virt.   37  a       -0.92153
     Occ.   35  a   ---  Virt.   38  a        0.08178
     Occ.   35  a   ---  Virt.   43  a       -0.24796
     Occ.   35  a   ---  Virt.   46  a        0.07014
     Occ.   35  a   ---  Virt.   48  a        0.05088
     Occ.   35  a   ---  Virt.   49  a        0.14360
     Occ.   35  a   ---  Virt.   54  a        0.05982
     Occ.   35  a   ---  Virt.   58  a       -0.10747
     Occ.   35  a   ---  Virt.   61  a       -0.05086
  ----------------------------------------------------------------------------
  Root   8 singlet a              0.247023036 a.u.                6.7218 eV 
  ----------------------------------------------------------------------------
     Transition Moments    X -0.00001   Y -0.15876   Z -0.00000
     Transition Moments   XX  0.00000  XY  0.00057  XZ  0.00028
     Transition Moments   YY -0.00000  YZ -0.71273  ZZ  0.00000
     Dipole Oscillator Strength                    0.0041506620
     Electric Quadrupole                           0.0000000408
     Magnetic Dipole                               0.0000000918
     Total Oscillator Strength                     0.0041507946

     Occ.   27  a   ---  Virt.   36  a       -0.07203
     Occ.   29  a   ---  Virt.   36  a        0.12745
     Occ.   31  a   ---  Virt.   39  a       -0.25114
     Occ.   31  a   ---  Virt.   42  a       -0.12538
     Occ.   31  a   ---  Virt.   45  a        0.18183
     Occ.   32  a   ---  Virt.   36  a       -0.05897
     Occ.   32  a   ---  Virt.   41  a       -0.06549
     Occ.   35  a   ---  Virt.   39  a        0.72534
     Occ.   35  a   ---  Virt.   42  a        0.35936
     Occ.   35  a   ---  Virt.   45  a       -0.40903
     Occ.   35  a   ---  Virt.   47  a        0.12520

              Target root =      1
          Target symmetry = none
      Ground state energy =   -738.404832748662
        Excitation energy =      0.164133996169
     Excited state energy =   -738.240698752494

  stored tddft:energy   -738.24069875249359     

    8 smallest eigenvalue differences (eV) 
--------------------------------------------------------
  No. Spin  Occ  Vir  Irrep   E(Occ)    E(Vir)   E(Diff)
--------------------------------------------------------
    1    1   35   36 a        -0.332    -0.031     8.195
    2    1   34   36 a        -0.349    -0.031     8.655
    3    1   33   36 a        -0.391    -0.031     9.784
    4    1   32   36 a        -0.409    -0.031    10.280
    5    1   35   37 a        -0.332     0.053    10.497
    6    1   35   38 a        -0.332     0.054    10.526
    7    1   35   39 a        -0.332     0.058    10.608
    8    1   35   40 a        -0.332     0.062    10.741
--------------------------------------------------------

  Entering Davidson iterations
  Restricted triplet excited states

  Iter   NTrls   NConv    DeltaV     DeltaE      Time   
  ----  ------  ------  ---------  ---------  --------- 
    1      8       0     0.59E-01   0.10+100      248.3
    2     16       0     0.29E-01   0.27E-01      251.1
    3     24       0     0.79E-01   0.44E-01      250.8
    4     32       0     0.11E+00   0.21E-01      252.1
    5     40       0     0.44E-01   0.83E-02      252.7
    6     48       1     0.39E-01   0.32E-02      252.3
    7     55       3     0.71E-01   0.11E-01      242.1
    8     60       4     0.17E+00   0.13E-01      222.3
    9     64       4     0.68E-01   0.14E-01      211.0
   10     68       5     0.18E-01   0.23E-02      212.3
   11     71       6     0.32E-02   0.12E-03      203.1
   12     73       6     0.63E-03   0.35E-05      193.1
   13     75       6     0.22E-03   0.21E-06      194.0
   14     77       8     0.66E-04   0.21E-07      193.2
  ----  ------  ------  ---------  ---------  --------- 
  Convergence criterion met

  Ground state a        -738.404832748662 a.u.

  ----------------------------------------------------------------------------
  Root   1 triplet a              0.100089753 a.u.                2.7236 eV 
  ----------------------------------------------------------------------------
     Transition Moments                    Spin forbidden
     Oscillator Strength                   Spin forbidden

     Occ.   30  a   ---  Virt.   40  a        0.08371
     Occ.   31  a   ---  Virt.   36  a        0.12648
     Occ.   31  a   ---  Virt.   41  a       -0.17263
     Occ.   34  a   ---  Virt.   40  a       -0.09041
     Occ.   35  a   ---  Virt.   36  a       -0.95498
     Occ.   35  a   ---  Virt.   41  a       -0.10712
     Occ.   35  a   ---  Virt.   44  a        0.05403
  ----------------------------------------------------------------------------
  Root   2 triplet a              0.117902418 a.u.                3.2083 eV 
  ----------------------------------------------------------------------------
     Transition Moments                    Spin forbidden
     Oscillator Strength                   Spin forbidden

     Occ.   30  a   ---  Virt.   36  a        0.10086
     Occ.   30  a   ---  Virt.   41  a       -0.12400
     Occ.   34  a   ---  Virt.   36  a        0.97790
     Occ.   34  a   ---  Virt.   41  a       -0.10371
  ----------------------------------------------------------------------------
  Root   3 triplet a              0.149876383 a.u.                4.0783 eV 
  ----------------------------------------------------------------------------
     Transition Moments                    Spin forbidden
     Oscillator Strength                   Spin forbidden

     Occ.   32  a   ---  Virt.   40  a       -0.07776
     Occ.   33  a   ---  Virt.   36  a        0.95222
     Occ.   33  a   ---  Virt.   41  a       -0.27199
  ----------------------------------------------------------------------------
  Root   4 triplet a              0.160565812 a.u.                4.3692 eV 
  ----------------------------------------------------------------------------
     Transition Moments                    Spin forbidden
     Oscillator Strength                   Spin forbidden

     Occ.   25  a   ---  Virt.   40  a        0.06469
     Occ.   30  a   ---  Virt.   40  a       -0.05515
     Occ.   31  a   ---  Virt.   36  a        0.70352
     Occ.   31  a   ---  Virt.   41  a       -0.06653
     Occ.   35  a   ---  Virt.   41  a        0.67869
     Occ.   35  a   ---  Virt.   44  a       -0.09024
     Occ.   35  a   ---  Virt.   59  a        0.05336
     Occ.   35  a   ---  Virt.   66  a        0.06398
  ----------------------------------------------------------------------------
  Root   5 triplet a              0.177049479 a.u.                4.8178 eV 
  ----------------------------------------------------------------------------
     Transition Moments                    Spin forbidden
     Oscillator Strength                   Spin forbidden

     Occ.   27  a   ---  Virt.   36  a       -0.15661
     Occ.   27  a   ---  Virt.   41  a        0.11152
     Occ.   32  a   ---  Virt.   36  a        0.95241
     Occ.   32  a   ---  Virt.   41  a       -0.15892
     Occ.   33  a   ---  Virt.   40  a       -0.12749
  ----------------------------------------------------------------------------
  Root   6 triplet a              0.180596888 a.u.                4.9143 eV 
  ----------------------------------------------------------------------------
     Transition Moments                    Spin forbidden
     Oscillator Strength                   Spin forbidden

     Occ.   30  a   ---  Virt.   36  a       -0.42193
     Occ.   30  a   ---  Virt.   41  a       -0.08208
     Occ.   31  a   ---  Virt.   40  a        0.11360
     Occ.   34  a   ---  Virt.   41  a        0.33123
     Occ.   35  a   ---  Virt.   40  a        0.81360
     Occ.   35  a   ---  Virt.   53  a        0.07727
     Occ.   35  a   ---  Virt.   68  a       -0.07736
  ----------------------------------------------------------------------------
  Root   7 triplet a              0.203803448 a.u.                5.5458 eV 
  ----------------------------------------------------------------------------
     Transition Moments                    Spin forbidden
     Oscillator Strength                   Spin forbidden

     Occ.   25  a   ---  Virt.   40  a        0.08087
     Occ.   30  a   ---  Virt.   40  a        0.09311
     Occ.   30  a   ---  Virt.   53  a        0.07029
     Occ.   30  a   ---  Virt.   56  a       -0.06807
     Occ.   31  a   ---  Virt.   36  a        0.19004
     Occ.   31  a   ---  Virt.   41  a       -0.10446
     Occ.   34  a   ---  Virt.   40  a       -0.92236
     Occ.   34  a   ---  Virt.   56  a       -0.08239
     Occ.   35  a   ---  Virt.   36  a        0.17055
     Occ.   35  a   ---  Virt.   41  a       -0.16250
  ----------------------------------------------------------------------------
  Root   8 triplet a              0.208614303 a.u.                5.6767 eV 
  ----------------------------------------------------------------------------
     Transition Moments                    Spin forbidden
     Oscillator Strength                   Spin forbidden

     Occ.   30  a   ---  Virt.   36  a       -0.35060
     Occ.   30  a   ---  Virt.   41  a       -0.07243
     Occ.   34  a   ---  Virt.   36  a        0.11935
     Occ.   34  a   ---  Virt.   41  a        0.75472
     Occ.   34  a   ---  Virt.   44  a       -0.07873
     Occ.   34  a   ---  Virt.   66  a        0.05588
     Occ.   35  a   ---  Virt.   40  a       -0.51236
     Occ.   35  a   ---  Virt.   56  a       -0.05387

              Target root =      1
          Target symmetry = none
      Ground state energy =   -738.404832748662
        Excitation energy =      0.100089753382
     Excited state energy =   -738.304742995281

  stored tddft:energy   -738.30474299528066     

 Task  times  cpu:     6178.2s     wall:     7463.5s


                                NWChem Input Module
                                -------------------


 Summary of allocated global arrays
-----------------------------------
  No active global arrays


MA_summarize_allocated_blocks: starting scan ...
heap block 'gridpts', handle 68, address 0x12dd20e8:
	type of elements:		double precision
	number of elements:		10485640165
	address of client space:	0x12dd2140
	index for client space:		11403135
	total number of bytes:		83885121416
MA_summarize_allocated_blocks: scan completed: 1 heap block, 0 stack blocks
MA usage statistics:

	allocation statistics:
					      heap	     stack
					      ----	     -----
	current number of blocks	         1	         0
	maximum number of blocks	        18	        53
	current total bytes		83885121416	         0
	maximum total bytes		83886721152	  48568616
	maximum total K-bytes		  83886722	     48569
	maximum total M-bytes		     83887	        49


                                     CITATION
                                     --------
                Please cite the following reference when publishing
                           results obtained with NWChem:

          E. Apra, E. J. Bylaska, W. A. de Jong, N. Govind, K. Kowalski,
       T. P. Straatsma, M. Valiev, H. J. J. van Dam, Y. Alexeev, J. Anchell,
       V. Anisimov, F. W. Aquino, R. Atta-Fynn, J. Autschbach, N. P. Bauman,
     J. C. Becca, D. E. Bernholdt, K. Bhaskaran-Nair, S. Bogatko, P. Borowski,
         J. Boschen, J. Brabec, A. Bruner, E. Cauet, Y. Chen, G. N. Chuev,
      C. J. Cramer, J. Daily, M. J. O. Deegan, T. H. Dunning Jr., M. Dupuis,
   K. G. Dyall, G. I. Fann, S. A. Fischer, A. Fonari, H. Fruchtl, L. Gagliardi,
      J. Garza, N. Gawande, S. Ghosh, K. Glaesemann, A. W. Gotz, J. Hammond,
       V. Helms, E. D. Hermes, K. Hirao, S. Hirata, M. Jacquelin, L. Jensen,
   B. G. Johnson, H. Jonsson, R. A. Kendall, M. Klemm, R. Kobayashi, V. Konkov,
      S. Krishnamoorthy, M. Krishnan, Z. Lin, R. D. Lins, R. J. Littlefield,
      A. J. Logsdail, K. Lopata, W. Ma, A. V. Marenich, J. Martin del Campo,
   D. Mejia-Rodriguez, J. E. Moore, J. M. Mullin, T. Nakajima, D. R. Nascimento,
    J. A. Nichols, P. J. Nichols, J. Nieplocha, A. Otero-de-la-Roza, B. Palmer,
    A. Panyala, T. Pirojsirikul, B. Peng, R. Peverati, J. Pittner, L. Pollack,
   R. M. Richard, P. Sadayappan, G. C. Schatz, W. A. Shelton, D. W. Silverstein,
   D. M. A. Smith, T. A. Soares, D. Song, M. Swart, H. L. Taylor, G. S. Thomas,
            V. Tipparaju, D. G. Truhlar, K. Tsemekhman, T. Van Voorhis,
      A. Vazquez-Mayagoitia, P. Verma, O. Villa, A. Vishnu, K. D. Vogiatzis,
        D. Wang, J. H. Weare, M. J. Williamson, T. L. Windus, K. Wolinski,
        A. T. Wong, Q. Wu, C. Yang, Q. Yu, M. Zacharias, Z. Zhang, Y. Zhao,
                                and R. J. Harrison
                        "NWChem: Past, present, and future
                         J. Chem. Phys. 152, 184102 (2020)
                               doi:10.1063/5.0004997

                                      AUTHORS
                                      -------
  E. Apra, E. J. Bylaska, N. Govind, K. Kowalski, M. Valiev, D. Mejia-Rodriguez,
       A. Kunitsa, N. P. Bauman, A. Panyala, W. A. de Jong, T. P. Straatsma,
   H. J. J. van Dam, D. Wang, T. L. Windus, J. Hammond, J. Autschbach, A. Woods,
    K. Bhaskaran-Nair, J. Brabec, K. Lopata, S. A. Fischer, S. Krishnamoorthy,
     M. Jacquelin, W. Ma, M. Klemm, O. Villa, Y. Chen, V. Anisimov, F. Aquino,
     S. Hirata, M. T. Hackler, E. Hermes, L. Jensen, J. E. Moore, J. C. Becca,
      V. Konjkov, T. Risthaus, M. Malagoli, A. Marenich, A. Otero-de-la-Roza,
        J. Mullin, P. Nichols, R. Peverati, J. Pittner, Y. Zhao, P.-D. Fan,
        A. Fonari, M. J. Williamson, R. J. Harrison, J. R. Rehr, M. Dupuis,
     D. Silverstein, D. M. A. Smith, J. Nieplocha, V. Tipparaju, M. Krishnan,
     B. E. Van Kuiken, A. Vazquez-Mayagoitia, M. Swart, Q. Wu, T. Van Voorhis,
     A. A. Auer, M. Nooijen, L. D. Crosby, E. Brown, G. Cisneros, G. I. Fann,
   H. Fruchtl, J. Garza, K. Hirao, R. A. Kendall, J. A. Nichols, K. Tsemekhman,
    K. Wolinski, J. Anchell, D. E. Bernholdt, P. Borowski, T. Clark, D. Clerc,
   H. Dachsel, M. J. O. Deegan, K. Dyall, D. Elwood, E. Glendening, M. Gutowski,
   A. C. Hess, J. Jaffe, B. G. Johnson, J. Ju, R. Kobayashi, R. Kutteh, Z. Lin,
   R. Littlefield, X. Long, B. Meng, T. Nakajima, S. Niu, L. Pollack, M. Rosing,
   K. Glaesemann, G. Sandrone, M. Stave, H. Taylor, G. Thomas, J. H. van Lenthe,
                               A. T. Wong, Z. Zhang.

 Total times  cpu:     6178.2s     wall:     7464.0s
