 argument  1 = /home/aditisingh4812/nw_chem/nwchem-run/nwchem-run/tddft/closed/lcwpbe/geom-MOL/benzonitrile.nw
                                         
                                         


             Northwest Computational Chemistry Package (NWChem) 7.2.3
             --------------------------------------------------------


                    Environmental Molecular Sciences Laboratory
                       Pacific Northwest National Laboratory
                                Richland, WA 99352

                              Copyright (c) 1994-2022
                       Pacific Northwest National Laboratory
                            Battelle Memorial Institute

             NWChem is an open-source computational chemistry package
                        distributed under the terms of the
                      Educational Community License (ECL) 2.0
             A copy of the license is included with this distribution
                              in the LICENSE.TXT file

                                  ACKNOWLEDGMENT
                                  --------------

            This software and its documentation were developed at the
            EMSL at Pacific Northwest National Laboratory, a multiprogram
            national laboratory, operated for the U.S. Department of Energy
            by Battelle under Contract Number DE-AC05-76RL01830. Support
            for this work was provided by the Department of Energy Office
            of Biological and Environmental Research, Office of Basic
            Energy Sciences, and the Office of Advanced Scientific Computing.


           Job information
           ---------------

    hostname        = p20
    program         = /home/aditisingh4812/nw_chem/nwchem-7.2.3-release.revision-d690e065-srconly.2024-08-27/nwchem-7.2.3/bin/LINUX64/nwchem
    date            = Tue Apr  8 01:33:38 2025

    compiled        = Mon_Apr_07_18:51:54_2025
    source          = /home/aditisingh4812/nw_chem/nwchem-7.2.3-release.revision-d690e065-srconly.2024-08-27/nwchem-7.2.3
    nwchem branch   = 7.2.3
    nwchem revision = d690e065
    ga revision     = 5.8.0
    use scalapack   = F
    input           = /home/aditisingh4812/nw_chem/nwchem-run/nwchem-run/tddft/closed/lcwpbe/geom-MOL/benzonitrile.nw
    prefix          = benzonitrile.
    data base       = ./benzonitrile.db
    status          = startup
    nproc           =       48
    time left       =     -1s



           Memory information
           ------------------

    heap     = ********** doubles = 100000.0 Mbytes
    stack    = ********** doubles = 100000.0 Mbytes
    global   = ********** doubles = 100000.0 Mbytes (distinct from heap & stack)
    total    = ********** doubles = 300000.0 Mbytes
    verify   = yes
    hardfail = no 


           Directory information
           ---------------------

  0 permanent = .
  0 scratch   = .




                                NWChem Input Module
                                -------------------



 Scaling coordinates for geometry "geometry" by  1.889725989
 (inverse scale =  0.529177249)



                             Geometry "geometry" -> ""
                             -------------------------

 Output coordinates in angstroms (scale by  1.889725989 to convert to a.u.)

  No.       Tag          Charge          X              Y              Z
 ---- ---------------- ---------- -------------- -------------- --------------
    1 C                    6.0000     0.00000000     0.00000000     2.03530194
    2 C                    6.0000     0.00000000     0.00000000     0.60494794
    3 C                    6.0000     1.21054800     0.00000000    -0.08993006
    4 C                    6.0000    -1.21054800     0.00000000    -0.08993006
    5 C                    6.0000     0.00000000     0.00000000    -2.17318706
    6 C                    6.0000     1.20683900     0.00000000    -1.47845906
    7 C                    6.0000    -1.20683900     0.00000000    -1.47845906
    8 N                    7.0000     0.00000000     0.00000000     3.19749094
    9 H                    1.0000     2.13750800     0.00000000     0.45867294
   10 H                    1.0000    -2.13750800     0.00000000     0.45867294
   11 H                    1.0000     2.14082100     0.00000000    -2.01539206
   12 H                    1.0000    -2.14082100     0.00000000    -2.01539206
   13 H                    1.0000     0.00000000     0.00000000    -3.25070606

      Atomic Mass 
      ----------- 

      C                 12.000000
      N                 14.003070
      H                  1.007825


 Effective nuclear repulsion energy (a.u.)     300.4148391350

            Nuclear Dipole moment (a.u.) 
            ----------------------------
        X                 Y               Z
 ---------------- ---------------- ----------------
     0.0000000000     0.0000000000     0.0000000000


            XYZ format geometry
            -------------------
    13
 geometry
 C                     0.00000000     0.00000000     2.03530194
 C                     0.00000000     0.00000000     0.60494794
 C                     1.21054800     0.00000000    -0.08993006
 C                    -1.21054800     0.00000000    -0.08993006
 C                     0.00000000     0.00000000    -2.17318706
 C                     1.20683900     0.00000000    -1.47845906
 C                    -1.20683900     0.00000000    -1.47845906
 N                     0.00000000     0.00000000     3.19749094
 H                     2.13750800     0.00000000     0.45867294
 H                    -2.13750800     0.00000000     0.45867294
 H                     2.14082100     0.00000000    -2.01539206
 H                    -2.14082100     0.00000000    -2.01539206
 H                     0.00000000     0.00000000    -3.25070606

 ==============================================================================
                                internuclear distances
 ------------------------------------------------------------------------------
       center one      |      center two      | atomic units |  angstroms
 ------------------------------------------------------------------------------
    2 C                |   1 C                |     2.70298  |     1.43035
    3 C                |   2 C                |     2.63770  |     1.39581
    4 C                |   2 C                |     2.63770  |     1.39581
    6 C                |   3 C                |     2.62395  |     1.38853
    6 C                |   5 C                |     2.63148  |     1.39252
    7 C                |   4 C                |     2.62395  |     1.38853
    7 C                |   5 C                |     2.63148  |     1.39252
    8 N                |   1 C                |     2.19622  |     1.16219
    9 H                |   3 C                |     2.03549  |     1.07714
   10 H                |   4 C                |     2.03549  |     1.07714
   11 H                |   6 C                |     2.03584  |     1.07732
   12 H                |   7 C                |     2.03584  |     1.07732
   13 H                |   5 C                |     2.03622  |     1.07752
 ------------------------------------------------------------------------------
                         number of included internuclear distances:         13
 ==============================================================================



 ==============================================================================
                                 internuclear angles
 ------------------------------------------------------------------------------
        center 1       |       center 2       |       center 3       |  degrees
 ------------------------------------------------------------------------------
    2 C                |   1 C                |   8 N                |   180.00
    1 C                |   2 C                |   3 C                |   119.86
    1 C                |   2 C                |   4 C                |   119.86
    3 C                |   2 C                |   4 C                |   120.29
    2 C                |   3 C                |   6 C                |   119.70
    2 C                |   3 C                |   9 H                |   119.53
    6 C                |   3 C                |   9 H                |   120.77
    2 C                |   4 C                |   7 C                |   119.70
    2 C                |   4 C                |  10 H                |   119.53
    7 C                |   4 C                |  10 H                |   120.77
    6 C                |   5 C                |   7 C                |   120.15
    6 C                |   5 C                |  13 H                |   119.93
    7 C                |   5 C                |  13 H                |   119.93
    3 C                |   6 C                |   5 C                |   120.08
    3 C                |   6 C                |  11 H                |   119.74
    5 C                |   6 C                |  11 H                |   120.18
    4 C                |   7 C                |   5 C                |   120.08
    4 C                |   7 C                |  12 H                |   119.74
    5 C                |   7 C                |  12 H                |   120.18
 ------------------------------------------------------------------------------
                            number of included internuclear angles:         19
 ==============================================================================





 Summary of "ao basis" -> "" (cartesian)
 ------------------------------------------------------------------------------
       Tag                 Description            Shells   Functions and Types
 ---------------- ------------------------------  ------  ---------------------
 *                         def2-TZVPD                 on all atoms 


  pbe96 is a nonlocal functional; adding pw91lda local functional. 

                                 NWChem DFT Module
                                 -----------------


                      Basis "ao basis" -> "ao basis" (cartesian)
                      -----
  C (Carbon)
  ----------
            Exponent  Coefficients 
       -------------- ---------------------------------------------------------
  1 S  1.35753497E+04  0.000222
  1 S  2.03523337E+03  0.001723
  1 S  4.63225624E+02  0.008926
  1 S  1.31200196E+02  0.035728
  1 S  4.28530159E+01  0.110763
  1 S  1.55841858E+01  0.242956

  2 S  6.20671385E+00  0.414403
  2 S  2.57648965E+00  0.237450

  3 S  5.76963394E-01  1.000000

  4 S  2.29728314E-01  1.000000

  5 S  9.51644400E-02  1.000000

  6 S  4.84754014E-02  1.000000

  7 P  3.46972322E+01  0.005333
  7 P  7.95826228E+00  0.035864
  7 P  2.37808269E+00  0.142159
  7 P  8.14332082E-01  0.342705

  8 P  2.88875473E-01  1.000000

  9 P  1.00568237E-01  1.000000

 10 D  1.09700000E+00  1.000000

 11 D  3.18000000E-01  1.000000

 12 D  9.09853364E-02  1.000000

 13 F  7.61000000E-01  1.000000

  N (Nitrogen)
  ------------
            Exponent  Coefficients 
       -------------- ---------------------------------------------------------
  1 S  1.97308006E+04  0.000219
  1 S  2.95789587E+03  0.001696
  1 S  6.73221336E+02  0.008795
  1 S  1.90682495E+02  0.035359
  1 S  6.22954419E+01  0.110958
  1 S  2.26541612E+01  0.249830

  2 S  8.97914774E+00  0.406239
  2 S  3.68630024E+00  0.243382

  3 S  8.46600768E-01  1.000000

  4 S  3.36471338E-01  1.000000

  5 S  1.36476537E-01  1.000000

  6 S  6.84416058E-02  1.000000

  7 P  4.92003805E+01  0.005555
  7 P  1.13467905E+01  0.038052
  7 P  3.42739724E+00  0.149537
  7 P  1.17855251E+00  0.349493

  8 P  4.16422050E-01  1.000000

  9 P  1.42608260E-01  1.000000

 10 D  1.65400000E+00  1.000000

 11 D  4.69000000E-01  1.000000

 12 D  1.28296421E-01  1.000000

 13 F  1.09300000E+00  1.000000

  H (Hydrogen)
  ------------
            Exponent  Coefficients 
       -------------- ---------------------------------------------------------
  1 S  3.40613410E+01  0.006025
  1 S  5.12357460E+00  0.045021
  1 S  1.16466260E+00  0.201897

  2 S  3.27230410E-01  1.000000

  3 S  1.03072410E-01  1.000000

  4 P  8.00000000E-01  1.000000

  5 P  9.57741296E-02  1.000000



 Summary of "ao basis" -> "ao basis" (cartesian)
 ------------------------------------------------------------------------------
       Tag                 Description            Shells   Functions and Types
 ---------------- ------------------------------  ------  ---------------------
 C                         def2-TZVPD               13       43   6s3p3d1f
 N                         def2-TZVPD               13       43   6s3p3d1f
 H                         def2-TZVPD                5        9   3s2p




 Summary of "ao basis" -> "ao basis" (cartesian)
 ------------------------------------------------------------------------------
       Tag                 Description            Shells   Functions and Types
 ---------------- ------------------------------  ------  ---------------------
 C                         def2-TZVPD               13       43   6s3p3d1f
 N                         def2-TZVPD               13       43   6s3p3d1f
 H                         def2-TZVPD                5        9   3s2p


  int_init: cando_txs set to always be  F
  Caching 1-el integrals 

            General Information
            -------------------
          SCF calculation type: DFT
          Wavefunction type:  closed shell.
          No. of atoms     :    13
          No. of electrons :    54
           Alpha electrons :    27
            Beta electrons :    27
          Charge           :     0
          Spin multiplicity:     1
          Use of symmetry is: off; symmetry adaption is: off
          Maximum number of iterations:  50
          AO basis - number of functions:   389
                     number of shells:   129
          Convergence on energy requested:  1.00D-06
          Convergence on density requested:  1.00D-05
          Convergence on gradient requested:  5.00D-04

              XC Information
              --------------
                     Hartree-Fock (Exact) Exchange  1.000          
                     LC-wPBE(h)Exchange Functional  1.000          
            Perdew 1991 LDA Correlation Functional  1.000 local    
           PerdewBurkeErnz. Correlation Functional  1.000 non-local

           Range-Separation Parameters        
           ---------------------------
           Alpha           :  0.00
           Beta            :  1.00
           Gamma           :  0.27
           Short-Range HF  :     F

             Grid Information
             ----------------
          Grid used for XC integration:  xfine     
          Radial quadrature: Mura-Knowles        
          Angular quadrature: Lebedev. 
          Tag              B.-S. Rad. Rad. Pts. Rad. Cut. Ang. Pts.
          ---              ---------- --------- --------- ---------
          C                   0.70      100          15.0      1454
          N                   0.65      100          16.0      1454
          H                   0.35      100          16.0      1202
          Grid pruning is: on 
          Number of quadrature shells:  1300
          Spatial weights used:  Erf1

          Convergence Information
          -----------------------
          Convergence aids based upon iterative change in 
          total energy or number of iterations. 
          Levelshifting, if invoked, occurs when the 
          HOMO/LUMO gap drops below (HL_TOL):  1.00D-02
          DIIS, if invoked, will attempt to extrapolate 
          using up to (NFOCK): 10 stored Fock matrices.

                    Damping( 0%)  Levelshifting(0.5)       DIIS
                  --------------- ------------------- ---------------
          dE  on:    start            ASAP                start   
          dE off:    2 iters         50 iters            50 iters 


      Screening Tolerance Information
      -------------------------------
          Density screening/tol_rho:  1.00D-10
          AO Gaussian exp screening on grid/accAOfunc:  14
          CD Gaussian exp screening on grid/accCDfunc:  20
          XC Gaussian exp screening on grid/accXCfunc:  20
          Schwarz screening/accCoul:  1.00D-08

  
  CAM type calculations without CDFIT are
  only available with the direct option.
  Forcing Direct SCF
  

 WARNING : Found    11 linear dependencies 
 S eigenvalue threshold:     1.00000E-05
 Smallest S eigenvalue :     3.49473E-08
 Largest  S eigenvalue :     6.90985E-06


 !! The overlap matrix has  11 vectors deemed linearly dependent with
    eigenvalues:
 3.49D-08 4.65D-07 8.95D-07 1.35D-06 1.65D-06 2.00D-06 2.08D-06 2.87D-06
 5.22D-06 6.05D-06 6.91D-06


      Superposition of Atomic Density Guess
      -------------------------------------

 Sum of atomic energies:        -320.50991748

      Non-variational initial energy
      ------------------------------

 Total energy =    -325.806625
 1-e energy   =   -1025.167886
 2-e energy   =     398.946422
 HOMO         =      -0.311660
 LUMO         =      -0.057063

  WARNING: movecs_in_org=atomic not equal to movecs_in=./benzonitrile.movecs
   Time after variat. SCF:     11.0
   Time prior to 1st pass:     11.0

 Grid_pts file          = ./benzonitrile.gridpts.00
 Record size in doubles =  12289        No. of grid_pts per rec  =   3070
 Max. records in memory =     16        Max. recs in file   =  21109390

 Grid integrated density:      53.993964796697
 Requested integration accuracy:   0.10E-07

           Memory utilization after 1st SCF pass: 
           Heap Space remaining (MW):     7864.23          7864234618
          Stack Space remaining (MW):    13107.20         13107197732

   convergence    iter        energy       DeltaE   RMS-Dens  Diis-err    time
 ---------------- ----- ----------------- --------- --------- ---------  ------
 d= 0,ls=0.0,diis     1   -322.9685120526 -6.23D+02  2.64D+02  6.85D+03    34.8
 Grid integrated density:      53.999995401906
 Requested integration accuracy:   0.10E-07
 d= 0,ls=0.0,diis     2   -306.8611281362  1.61D+01  1.87D+02  1.14D+02    63.0
 Grid integrated density:      54.000019108331
 Requested integration accuracy:   0.10E-07
 d= 0,ls=0.0,diis     3   -311.9042645985 -5.04D+00  3.28D+01  6.63D+01    90.5
 Grid integrated density:      54.000020582292
 Requested integration accuracy:   0.10E-07
 d= 0,ls=0.0,diis     4   -296.1014220776  1.58D+01  1.80D+02  7.54D+01   119.6
 Grid integrated density:      54.000000623819
 Requested integration accuracy:   0.10E-07
 d= 0,ls=0.0,diis     5   -310.8928370264 -1.48D+01  5.97D-02  5.74D+01   151.2
 Grid integrated density:      54.000000744295
 Requested integration accuracy:   0.10E-07
 d= 0,ls=0.0,diis     6   -323.1374982171 -1.22D+01  7.59D-02  9.91D+00   175.4
 Grid integrated density:      54.000000944273
 Requested integration accuracy:   0.10E-07
 d= 0,ls=0.0,diis     7   -323.8797532492 -7.42D-01  8.77D-03  3.91D+00   201.8
 Grid integrated density:      54.000001157864
 Requested integration accuracy:   0.10E-07
 d= 0,ls=0.0,diis     8   -324.2054367266 -3.26D-01  2.86D-03  5.64D-01   225.4
 Grid integrated density:      54.000001118650
 Requested integration accuracy:   0.10E-07
 d= 0,ls=0.0,diis     9   -324.2736451343 -6.82D-02  1.38D-03  1.23D-01   250.4
 Grid integrated density:      54.000001088077
 Requested integration accuracy:   0.10E-07
  Resetting Diis
 d= 0,ls=0.0,diis    10   -324.2920967151 -1.85D-02  3.94D-04  1.67D-02   274.9
 d= 0,ls=0.0,diis    11   -324.2940148859 -1.92D-03  1.31D-03  3.57D-03   299.6
 d= 0,ls=0.0,diis    12   -324.2939092422  1.06D-04  1.29D-04  5.30D-03   325.6
 d= 0,ls=0.0,diis    13   -324.2944343631 -5.25D-04  6.27D-05  2.99D-04   358.2
 d= 0,ls=0.0,diis    14   -324.2944666971 -3.23D-05  5.34D-05  1.50D-05   387.4
 d= 0,ls=0.0,diis    15   -324.2944699530 -3.26D-06  2.18D-05  4.21D-06   412.6
 d= 0,ls=0.0,diis    16   -324.2944710090 -1.06D-06  6.48D-06  1.99D-07   436.8
 d= 0,ls=0.0,diis    17   -324.2944710851 -7.60D-08  3.58D-06  6.51D-08   461.6


         Total DFT energy =     -324.294471085058
      One electron energy =    -1031.200245078782
           Coulomb energy =      452.880857901825
    Exchange-Corr. energy =      -46.389923043119
 Nuclear repulsion energy =      300.414839135018

 Numeric. integr. density =       54.000000084396

     Total iterative time =    450.6s



                       DFT Final Molecular Orbital Analysis
                       ------------------------------------

 Vector    1  Occ=2.000000D+00  E=-1.413931D+01
              MO Center=  2.7D-10, -3.4D-11,  3.2D+00, r^2= 2.0D-02
   Bfn.  Coefficient  Atom+Function         Bfn.  Coefficient  Atom+Function  
  ----- ------------  ---------------      ----- ------------  ---------------
   303      0.619318   8 N  s               302      0.449375   8 N  s         
   305     -0.114902   8 N  s               304      0.097370   8 N  s         

 Vector    2  Occ=2.000000D+00  E=-1.009693D+01
              MO Center=  1.1D-07, -8.8D-13,  6.1D-01, r^2= 2.8D-02
   Bfn.  Coefficient  Atom+Function         Bfn.  Coefficient  Atom+Function  
  ----- ------------  ---------------      ----- ------------  ---------------
    45      0.599364   2 C  s                44      0.468044   2 C  s         
    46      0.102161   2 C  s                47     -0.101471   2 C  s         

 Vector    3  Occ=2.000000D+00  E=-1.007985D+01
              MO Center=  2.2D-09, -6.9D-13,  2.0D+00, r^2= 2.8D-02
   Bfn.  Coefficient  Atom+Function         Bfn.  Coefficient  Atom+Function  
  ----- ------------  ---------------      ----- ------------  ---------------
     2      0.599063   1 C  s                 1      0.467881   1 C  s         
     4     -0.132829   1 C  s                 3      0.106291   1 C  s         
    25      0.025165   1 C  dyy              22      0.025013   1 C  dxx       

 Vector    4  Occ=2.000000D+00  E=-1.007410D+01
              MO Center=  1.0D+00,  1.2D-12, -9.2D-02, r^2= 4.3D-01
   Bfn.  Coefficient  Atom+Function         Bfn.  Coefficient  Atom+Function  
  ----- ------------  ---------------      ----- ------------  ---------------
    88      0.576519   3 C  s                87      0.450175   3 C  s         
   131     -0.162619   4 C  s               130     -0.126978   4 C  s         
    89      0.098897   3 C  s                90     -0.097983   3 C  s         
   132     -0.027831   4 C  s               133      0.027077   4 C  s         

 Vector    5  Occ=2.000000D+00  E=-1.007409D+01
              MO Center= -1.0D+00, -5.1D-13, -9.2D-02, r^2= 4.3D-01
   Bfn.  Coefficient  Atom+Function         Bfn.  Coefficient  Atom+Function  
  ----- ------------  ---------------      ----- ------------  ---------------
   131      0.576517   4 C  s               130      0.450176   4 C  s         
    88      0.162614   3 C  s                87      0.126982   3 C  s         
   132      0.098937   4 C  s               133     -0.098327   4 C  s         
    90     -0.028296   3 C  s                89      0.027972   3 C  s         

 Vector    6  Occ=2.000000D+00  E=-1.007004D+01
              MO Center=  9.7D-05,  7.8D-14, -2.2D+00, r^2= 7.2D-02
   Bfn.  Coefficient  Atom+Function         Bfn.  Coefficient  Atom+Function  
  ----- ------------  ---------------      ----- ------------  ---------------
   174      0.592525   5 C  s               173      0.462670   5 C  s         
   175      0.101802   5 C  s               176     -0.101282   5 C  s         
   217      0.064176   6 C  s               260      0.063950   7 C  s         
   216      0.050101   6 C  s               259      0.049925   7 C  s         

 Vector    7  Occ=2.000000D+00  E=-1.006811D+01
              MO Center=  1.7D-01, -1.7D-12, -1.5D+00, r^2= 1.5D+00
   Bfn.  Coefficient  Atom+Function         Bfn.  Coefficient  Atom+Function  
  ----- ------------  ---------------      ----- ------------  ---------------
   217      0.452727   6 C  s               260     -0.392192   7 C  s         
   216      0.353515   6 C  s               259     -0.306244   7 C  s         
   218      0.077829   6 C  s               219     -0.077282   6 C  s         
   261     -0.067434   7 C  s               262      0.066963   7 C  s         

 Vector    8  Occ=2.000000D+00  E=-1.006806D+01
              MO Center= -1.7D-01, -3.7D-13, -1.5D+00, r^2= 1.4D+00
   Bfn.  Coefficient  Atom+Function         Bfn.  Coefficient  Atom+Function  
  ----- ------------  ---------------      ----- ------------  ---------------
   260      0.448264   7 C  s               217      0.386995   6 C  s         
   259      0.350038   7 C  s               216      0.302196   6 C  s         
   174     -0.090555   5 C  s               261      0.076985   7 C  s         
   262     -0.076426   7 C  s               173     -0.070726   5 C  s         
   218      0.066451   6 C  s               219     -0.065966   6 C  s         

 Vector    9  Occ=2.000000D+00  E=-9.885391D-01
              MO Center=  1.2D-05,  2.0D-10,  1.5D+00, r^2= 3.0D+00
   Bfn.  Coefficient  Atom+Function         Bfn.  Coefficient  Atom+Function  
  ----- ------------  ---------------      ----- ------------  ---------------
     4      0.255634   1 C  s               304      0.233244   8 N  s         
     3      0.229066   1 C  s                46      0.149275   2 C  s         
    33     -0.143971   1 C  dzz             303     -0.136256   8 N  s         
     2     -0.135206   1 C  s                76     -0.117782   2 C  dzz       
   310     -0.115756   8 N  pz               89      0.091815   3 C  s         

 Vector   10  Occ=2.000000D+00  E=-9.640645D-01
              MO Center=  2.7D-05,  2.0D-10,  5.0D-01, r^2= 4.5D+00
   Bfn.  Coefficient  Atom+Function         Bfn.  Coefficient  Atom+Function  
  ----- ------------  ---------------      ----- ------------  ---------------
     4      0.256995   1 C  s                47     -0.204103   2 C  s         
   304      0.204920   8 N  s                 3      0.133786   1 C  s         
     9      0.133988   1 C  pz              175     -0.120088   5 C  s         
   303     -0.119589   8 N  s               218     -0.116646   6 C  s         
   261     -0.116640   7 C  s                89     -0.115190   3 C  s         

 Vector   11  Occ=2.000000D+00  E=-8.746290D-01
              MO Center=  1.3D-05,  7.6D-11, -4.8D-01, r^2= 3.6D+00
   Bfn.  Coefficient  Atom+Function         Bfn.  Coefficient  Atom+Function  
  ----- ------------  ---------------      ----- ------------  ---------------
    47      0.274296   2 C  s                46      0.207183   2 C  s         
   175     -0.195815   5 C  s               176     -0.189612   5 C  s         
     9     -0.134329   1 C  pz               45     -0.127336   2 C  s         
   174      0.122774   5 C  s               218     -0.120361   6 C  s         
   261     -0.120356   7 C  s               219     -0.101205   6 C  s         

 Vector   12  Occ=2.000000D+00  E=-8.607360D-01
              MO Center= -1.4D-05,  2.6D-10, -7.3D-01, r^2= 2.9D+00
   Bfn.  Coefficient  Atom+Function         Bfn.  Coefficient  Atom+Function  
  ----- ------------  ---------------      ----- ------------  ---------------
    89      0.186124   3 C  s               132     -0.186125   4 C  s         
    90      0.178667   3 C  s               133     -0.178665   4 C  s         
   218      0.175784   6 C  s               261     -0.175789   7 C  s         
   219      0.167531   6 C  s               262     -0.167534   7 C  s         
    88     -0.114417   3 C  s               131      0.114418   4 C  s         

 Vector   13  Occ=2.000000D+00  E=-7.447784D-01
              MO Center= -1.5D-06, -4.1D-11, -4.6D-01, r^2= 4.0D+00
   Bfn.  Coefficient  Atom+Function         Bfn.  Coefficient  Atom+Function  
  ----- ------------  ---------------      ----- ------------  ---------------
   176      0.204619   5 C  s               175      0.184579   5 C  s         
     9     -0.155274   1 C  pz               47      0.153513   2 C  s         
    90     -0.140966   3 C  s               133     -0.140964   4 C  s         
    52      0.137408   2 C  pz               89     -0.122241   3 C  s         
   132     -0.122242   4 C  s                46      0.121443   2 C  s         

 Vector   14  Occ=2.000000D+00  E=-7.227974D-01
              MO Center=  3.7D-06,  7.8D-11, -7.1D-01, r^2= 3.7D+00
   Bfn.  Coefficient  Atom+Function         Bfn.  Coefficient  Atom+Function  
  ----- ------------  ---------------      ----- ------------  ---------------
   219     -0.180750   6 C  s               262      0.180747   7 C  s         
    90      0.173232   3 C  s               133     -0.173236   4 C  s         
    50      0.169622   2 C  px              218     -0.157078   6 C  s         
   261      0.157074   7 C  s               179     -0.150063   5 C  px        
    89      0.141898   3 C  s               132     -0.141899   4 C  s         

 Vector   15  Occ=2.000000D+00  E=-6.618945D-01
              MO Center=  2.5D-05, -2.4D-10, -4.8D-01, r^2= 4.0D+00
   Bfn.  Coefficient  Atom+Function         Bfn.  Coefficient  Atom+Function  
  ----- ------------  ---------------      ----- ------------  ---------------
    52      0.189437   2 C  pz               93      0.152546   3 C  px        
   136     -0.152539   4 C  px                4      0.142449   1 C  s         
   222      0.136091   6 C  px              265     -0.136085   7 C  px        
    12     -0.123228   1 C  pz              365     -0.119421  11 H  s         
   374     -0.119423  12 H  s               177      0.118064   5 C  s         

 Vector   16  Occ=2.000000D+00  E=-5.971901D-01
              MO Center=  1.4D-05,  2.4D-11, -8.9D-01, r^2= 4.9D+00
   Bfn.  Coefficient  Atom+Function         Bfn.  Coefficient  Atom+Function  
  ----- ------------  ---------------      ----- ------------  ---------------
   181      0.194933   5 C  pz              382     -0.162509  13 H  s         
   176     -0.128248   5 C  s               219      0.123436   6 C  s         
   262      0.123439   7 C  s               381     -0.122240  13 H  s         
    52      0.118488   2 C  pz               95     -0.115819   3 C  pz        
   138     -0.115810   4 C  pz                3      0.111528   1 C  s         

 Vector   17  Occ=2.000000D+00  E=-5.724997D-01
              MO Center=  8.6D-06,  4.4D-12, -6.7D-01, r^2= 3.1D+00
   Bfn.  Coefficient  Atom+Function         Bfn.  Coefficient  Atom+Function  
  ----- ------------  ---------------      ----- ------------  ---------------
    50      0.206660   2 C  px              179      0.203026   5 C  px        
   224     -0.183907   6 C  pz              267      0.183900   7 C  pz        
    95      0.169358   3 C  pz              138     -0.169356   4 C  pz        
    73     -0.154311   2 C  dxz              53      0.122856   2 C  px        
   182      0.115999   5 C  px               93     -0.107644   3 C  px        

 Vector   18  Occ=2.000000D+00  E=-5.480885D-01
              MO Center=  2.1D-05,  5.6D-11, -9.1D-01, r^2= 4.3D+00
   Bfn.  Coefficient  Atom+Function         Bfn.  Coefficient  Atom+Function  
  ----- ------------  ---------------      ----- ------------  ---------------
    47      0.159841   2 C  s               222      0.158143   6 C  px        
   265     -0.158134   7 C  px              181     -0.148311   5 C  pz        
    52     -0.144807   2 C  pz               93     -0.140734   3 C  px        
   136      0.140730   4 C  px              187     -0.135793   5 C  pz        
   364      0.130198  11 H  s               373      0.130197  12 H  s         

 Vector   19  Occ=2.000000D+00  E=-5.342510D-01
              MO Center= -7.6D-06, -1.9D-11, -7.4D-01, r^2= 4.0D+00
   Bfn.  Coefficient  Atom+Function         Bfn.  Coefficient  Atom+Function  
  ----- ------------  ---------------      ----- ------------  ---------------
    93      0.161475   3 C  px              136      0.161481   4 C  px        
   222      0.152912   6 C  px              265      0.152913   7 C  px        
   346      0.126537   9 H  s               355     -0.126540  10 H  s         
   364      0.124009  11 H  s               373     -0.124006  12 H  s         
    95      0.122912   3 C  pz              138     -0.122908   4 C  pz        

 Vector   20  Occ=2.000000D+00  E=-5.144594D-01
              MO Center=  2.3D-05,  5.4D-10,  9.1D-02, r^2= 3.4D+00
   Bfn.  Coefficient  Atom+Function         Bfn.  Coefficient  Atom+Function  
  ----- ------------  ---------------      ----- ------------  ---------------
    51      0.206776   2 C  py               54      0.170184   2 C  py        
    94      0.152465   3 C  py              137      0.152458   4 C  py        
     8      0.147771   1 C  py               97      0.131266   3 C  py        
   140      0.131261   4 C  py               11      0.121921   1 C  py        
   223      0.122474   6 C  py              266      0.122469   7 C  py        

 Vector   21  Occ=2.000000D+00  E=-4.705561D-01
              MO Center= -3.0D-05,  9.8D-11, -4.8D-01, r^2= 6.8D+00
   Bfn.  Coefficient  Atom+Function         Bfn.  Coefficient  Atom+Function  
  ----- ------------  ---------------      ----- ------------  ---------------
   181     -0.207105   5 C  pz                4      0.204361   1 C  s         
   305     -0.202622   8 N  s               224      0.173147   6 C  pz        
   267      0.173154   7 C  pz               95     -0.168138   3 C  pz        
   138     -0.168144   4 C  pz              382      0.168738  13 H  s         
   310     -0.153926   8 N  pz              187     -0.143328   5 C  pz        

 Vector   22  Occ=2.000000D+00  E=-4.606780D-01
              MO Center= -5.1D-05,  1.1D-10, -3.6D-01, r^2= 5.3D+00
   Bfn.  Coefficient  Atom+Function         Bfn.  Coefficient  Atom+Function  
  ----- ------------  ---------------      ----- ------------  ---------------
   179      0.207202   5 C  px              222     -0.175666   6 C  px        
   265     -0.175673   7 C  px               50     -0.145021   2 C  px        
     7     -0.140048   1 C  px               93      0.138099   3 C  px        
   136      0.138105   4 C  px              308     -0.126141   8 N  px        
   185      0.123281   5 C  px              346      0.119472   9 H  s         

 Vector   23  Occ=2.000000D+00  E=-4.495048D-01
              MO Center=  1.1D-05,  6.7D-09,  1.0D+00, r^2= 5.6D+00
   Bfn.  Coefficient  Atom+Function         Bfn.  Coefficient  Atom+Function  
  ----- ------------  ---------------      ----- ------------  ---------------
   309      0.251648   8 N  py                8      0.250320   1 C  py        
    11      0.201363   1 C  py              312      0.201524   8 N  py        
   180     -0.158888   5 C  py              183     -0.137844   5 C  py        
   223     -0.126334   6 C  py              266     -0.126328   7 C  py        
   226     -0.111387   6 C  py              269     -0.111382   7 C  py        

 Vector   24  Occ=2.000000D+00  E=-4.454807D-01
              MO Center= -4.7D-06, -6.8D-09,  2.5D+00, r^2= 4.5D+00
   Bfn.  Coefficient  Atom+Function         Bfn.  Coefficient  Atom+Function  
  ----- ------------  ---------------      ----- ------------  ---------------
   305      0.406577   8 N  s               310      0.341124   8 N  pz        
     4     -0.303474   1 C  s               306      0.246615   8 N  s         
     9     -0.219556   1 C  pz               12     -0.189107   1 C  pz        
   304      0.167781   8 N  s               307      0.168058   8 N  s         
    47      0.133792   2 C  s                55      0.130409   2 C  pz        

 Vector   25  Occ=2.000000D+00  E=-4.256629D-01
              MO Center= -1.2D-05,  1.1D-10,  2.0D+00, r^2= 3.4D+00
   Bfn.  Coefficient  Atom+Function         Bfn.  Coefficient  Atom+Function  
  ----- ------------  ---------------      ----- ------------  ---------------
   308      0.304757   8 N  px                7      0.258874   1 C  px        
   311      0.243935   8 N  px               10      0.215136   1 C  px        
   314      0.134359   8 N  px               50     -0.131774   2 C  px        
    73      0.128998   2 C  dxz              93      0.095810   3 C  px        
   136      0.095811   4 C  px               53     -0.082816   2 C  px        

 Vector   26  Occ=2.000000D+00  E=-3.702975D-01
              MO Center= -4.0D-05, -2.2D-10, -7.7D-01, r^2= 3.0D+00
   Bfn.  Coefficient  Atom+Function         Bfn.  Coefficient  Atom+Function  
  ----- ------------  ---------------      ----- ------------  ---------------
    94      0.219132   3 C  py              137     -0.219133   4 C  py        
   223      0.213674   6 C  py              266     -0.213686   7 C  py        
    97      0.189229   3 C  py              140     -0.189230   4 C  py        
   226      0.187365   6 C  py              269     -0.187375   7 C  py        
   100      0.130927   3 C  py              143     -0.130929   4 C  py        

 Vector   27  Occ=2.000000D+00  E=-3.580450D-01
              MO Center=  1.2D-05, -7.0D-10,  7.2D-02, r^2= 5.0D+00
   Bfn.  Coefficient  Atom+Function         Bfn.  Coefficient  Atom+Function  
  ----- ------------  ---------------      ----- ------------  ---------------
    51      0.227499   2 C  py              180     -0.219372   5 C  py        
   309     -0.199504   8 N  py               54      0.193269   2 C  py        
   183     -0.192360   5 C  py              312     -0.162580   8 N  py        
    57      0.130214   2 C  py               94      0.119698   3 C  py        
   137      0.119702   4 C  py              186     -0.110441   5 C  py        

 Vector   28  Occ=0.000000D+00  E= 2.138613D-03
              MO Center=  1.7D-05, -7.9D-11, -5.5D-02, r^2= 5.3D+00
   Bfn.  Coefficient  Atom+Function         Bfn.  Coefficient  Atom+Function  
  ----- ------------  ---------------      ----- ------------  ---------------
   183      0.235029   5 C  py              180      0.230233   5 C  py        
    51      0.218973   2 C  py               54      0.212509   2 C  py        
    32     -0.185790   1 C  dyz             309     -0.178056   8 N  py        
   312     -0.170251   8 N  py               94     -0.153268   3 C  py        
   137     -0.153256   4 C  py               97     -0.147130   3 C  py        

 Vector   29  Occ=0.000000D+00  E= 2.820929D-02
              MO Center=  1.5D-06,  3.2D-10, -7.9D-01, r^2= 4.0D+00
   Bfn.  Coefficient  Atom+Function         Bfn.  Coefficient  Atom+Function  
  ----- ------------  ---------------      ----- ------------  ---------------
   226     -0.228465   6 C  py              269      0.228457   7 C  py        
   223     -0.223951   6 C  py              266      0.223944   7 C  py        
    94      0.220612   3 C  py               97      0.220717   3 C  py        
   137     -0.220615   4 C  py              140     -0.220720   4 C  py        
   118      0.126991   3 C  dyz             161     -0.126994   4 C  dyz       

 Vector   30  Occ=0.000000D+00  E= 4.569778D-02
              MO Center=  1.1D-04, -2.4D-08, -1.4D+00, r^2= 1.6D+01
   Bfn.  Coefficient  Atom+Function         Bfn.  Coefficient  Atom+Function  
  ----- ------------  ---------------      ----- ------------  ---------------
    49      7.068683   2 C  s                 6     -5.142446   1 C  s         
    92     -2.644525   3 C  s               135     -2.644380   4 C  s         
   221     -2.552368   6 C  s               264     -2.552197   7 C  s         
   307      1.611157   8 N  s               178     -1.542877   5 C  s         
   383      1.513465  13 H  s                33      1.452679   1 C  dzz       

 Vector   31  Occ=0.000000D+00  E= 6.685069D-02
              MO Center= -1.8D-05, -3.6D-09, -1.4D+00, r^2= 1.8D+01
   Bfn.  Coefficient  Atom+Function         Bfn.  Coefficient  Atom+Function  
  ----- ------------  ---------------      ----- ------------  ---------------
   221      5.069268   6 C  s               264     -5.069330   7 C  s         
    92      2.406679   3 C  s               135     -2.406198   4 C  s         
   243     -1.435698   6 C  dxx             286      1.435725   7 C  dxx       
   114     -1.175567   3 C  dxx             157      1.175450   4 C  dxx       
    56     -1.157494   2 C  px              245      1.106845   6 C  dxz       

 Vector   32  Occ=0.000000D+00  E= 6.954907D-02
              MO Center= -2.7D-09,  7.7D-09, -9.2D-01, r^2= 2.0D+01
   Bfn.  Coefficient  Atom+Function         Bfn.  Coefficient  Atom+Function  
  ----- ------------  ---------------      ----- ------------  ---------------
    49      6.338180   2 C  s               178      6.252716   5 C  s         
     6     -5.693658   1 C  s                92     -5.078654   3 C  s         
   135     -5.078689   4 C  s                33      4.155163   1 C  dzz       
   365     -2.605724  11 H  s               374     -2.605819  12 H  s         
   205     -2.186853   5 C  dzz              76      1.861742   2 C  dzz       

 Vector   33  Occ=0.000000D+00  E= 9.205780D-02
              MO Center= -2.1D-05,  5.2D-09,  4.9D-01, r^2= 1.5D+01
   Bfn.  Coefficient  Atom+Function         Bfn.  Coefficient  Atom+Function  
  ----- ------------  ---------------      ----- ------------  ---------------
    92      7.678057   3 C  s               135     -7.678091   4 C  s         
   221     -6.005312   6 C  s               264      6.005053   7 C  s         
    56     -2.246058   2 C  px               73     -1.832119   2 C  dxz       
   114     -1.644308   3 C  dxx             157      1.644375   4 C  dxx       
   117     -1.248719   3 C  dyy             160      1.248735   4 C  dyy       

 Vector   34  Occ=0.000000D+00  E= 9.533888D-02
              MO Center= -2.8D-05,  7.2D-10, -5.4D-01, r^2= 2.0D+01
   Bfn.  Coefficient  Atom+Function         Bfn.  Coefficient  Atom+Function  
  ----- ------------  ---------------      ----- ------------  ---------------
   178     11.075777   5 C  s               221     -6.836743   6 C  s         
   264     -6.836951   7 C  s                49      5.399005   2 C  s         
    33     -4.818786   1 C  dzz              76     -3.872622   2 C  dzz       
     6      3.337123   1 C  s               365      3.173222  11 H  s         
   374      3.173106  12 H  s               383      2.193211  13 H  s         

 Vector   35  Occ=0.000000D+00  E= 1.045748D-01
              MO Center=  2.6D-05, -2.0D-08, -5.5D-01, r^2= 1.4D+01
   Bfn.  Coefficient  Atom+Function         Bfn.  Coefficient  Atom+Function  
  ----- ------------  ---------------      ----- ------------  ---------------
    49     14.960333   2 C  s               383      7.334260  13 H  s         
     6     -6.705934   1 C  s               177     -5.710437   5 C  s         
   221      4.380637   6 C  s               264      4.380447   7 C  s         
   220     -4.181880   6 C  s               263     -4.181796   7 C  s         
   365      4.050354  11 H  s               374      4.050203  12 H  s         

 Vector   36  Occ=0.000000D+00  E= 1.077359D-01
              MO Center= -1.1D-05,  2.4D-09,  1.1D+00, r^2= 1.2D+01
   Bfn.  Coefficient  Atom+Function         Bfn.  Coefficient  Atom+Function  
  ----- ------------  ---------------      ----- ------------  ---------------
    92      6.834480   3 C  s               135     -6.834546   4 C  s         
   221     -6.228724   6 C  s               264      6.228771   7 C  s         
   114     -1.523407   3 C  dxx             157      1.523412   4 C  dxx       
    56     -1.489448   2 C  px               73     -1.464706   2 C  dxz       
   116     -1.264034   3 C  dxz             159     -1.263986   4 C  dxz       

 Vector   37  Occ=0.000000D+00  E= 1.343925D-01
              MO Center=  7.5D-07, -1.5D-08,  5.4D-01, r^2= 7.4D+00
   Bfn.  Coefficient  Atom+Function         Bfn.  Coefficient  Atom+Function  
  ----- ------------  ---------------      ----- ------------  ---------------
    32      0.775612   1 C  dyz              14     -0.674726   1 C  py        
    57      0.608302   2 C  py               75      0.335517   2 C  dyz       
   244     -0.327292   6 C  dxy             287      0.327297   7 C  dxy       
   204     -0.289658   5 C  dyz               8     -0.274369   1 C  py        
   186     -0.257272   5 C  py              312      0.236109   8 N  py        

 Vector   38  Occ=0.000000D+00  E= 1.354896D-01
              MO Center= -2.1D-05,  1.5D-07,  2.6D-01, r^2= 2.4D+01
   Bfn.  Coefficient  Atom+Function         Bfn.  Coefficient  Atom+Function  
  ----- ------------  ---------------      ----- ------------  ---------------
    92     11.650982   3 C  s               135     11.651261   4 C  s         
   221    -11.635446   6 C  s               264    -11.635642   7 C  s         
   178     11.320075   5 C  s                49     -7.371962   2 C  s         
    33      6.491076   1 C  dzz             347     -6.432748   9 H  s         
   356     -6.432580  10 H  s                 6     -5.263469   1 C  s         

 Vector   39  Occ=0.000000D+00  E= 1.608949D-01
              MO Center=  2.1D-05,  5.1D-08,  9.9D-01, r^2= 2.0D+01
   Bfn.  Coefficient  Atom+Function         Bfn.  Coefficient  Atom+Function  
  ----- ------------  ---------------      ----- ------------  ---------------
    49     18.511748   2 C  s               383     -9.338768  13 H  s         
   365     -9.246267  11 H  s               374     -9.245929  12 H  s         
   307     -8.637607   8 N  s                33      8.242774   1 C  dzz       
    92     -6.887297   3 C  s               135     -6.887221   4 C  s         
   178     -6.317155   5 C  s               177      5.970139   5 C  s         

 Vector   40  Occ=0.000000D+00  E= 1.728826D-01
              MO Center=  2.0D-04, -5.6D-08, -1.8D+00, r^2= 1.0D+01
   Bfn.  Coefficient  Atom+Function         Bfn.  Coefficient  Atom+Function  
  ----- ------------  ---------------      ----- ------------  ---------------
    75      1.513238   2 C  dyz             186     -1.339963   5 C  py        
    57      1.080660   2 C  py              244     -1.044124   6 C  dxy       
   287      1.044071   7 C  dxy             388      0.926219  13 H  py        
   118     -0.910853   3 C  dyz             161     -0.910589   4 C  dyz       
    32      0.862247   1 C  dyz             370      0.798896  11 H  py        

 Vector   41  Occ=0.000000D+00  E= 1.757807D-01
              MO Center= -2.8D-06,  8.3D-08, -7.3D-01, r^2= 1.5D+01
   Bfn.  Coefficient  Atom+Function         Bfn.  Coefficient  Atom+Function  
  ----- ------------  ---------------      ----- ------------  ---------------
   347     15.401761   9 H  s               356    -15.401632  10 H  s         
   365     14.625803  11 H  s               374    -14.626156  12 H  s         
    91     -9.087370   3 C  s               134      9.087467   4 C  s         
   220     -8.329461   6 C  s               263      8.329787   7 C  s         
    99     -6.849672   3 C  px              142     -6.849635   4 C  px        

 Vector   42  Occ=0.000000D+00  E= 1.831622D-01
              MO Center= -1.7D-04, -2.7D-08, -8.0D-01, r^2= 1.3D+01
   Bfn.  Coefficient  Atom+Function         Bfn.  Coefficient  Atom+Function  
  ----- ------------  ---------------      ----- ------------  ---------------
    72      4.768793   2 C  dxy             100     -3.129630   3 C  py        
   143      3.129459   4 C  py              201      2.487675   5 C  dxy       
   118     -2.354082   3 C  dyz             161      2.354317   4 C  dyz       
   229     -2.257621   6 C  py              272      2.257810   7 C  py        
   247      1.488745   6 C  dyz             290     -1.488512   7 C  dyz       

 Vector   43  Occ=0.000000D+00  E= 1.862112D-01
              MO Center= -1.0D-05, -6.7D-08, -7.7D-02, r^2= 1.2D+01
   Bfn.  Coefficient  Atom+Function         Bfn.  Coefficient  Atom+Function  
  ----- ------------  ---------------      ----- ------------  ---------------
    32      2.045955   1 C  dyz             247      2.045053   6 C  dyz       
   290      2.045184   7 C  dyz             186      1.704114   5 C  py        
   204     -1.639243   5 C  dyz              75      1.596832   2 C  dyz       
   115     -1.530954   3 C  dxy             158      1.530901   4 C  dxy       
   229      1.443272   6 C  py              272      1.443054   7 C  py        

 Vector   44  Occ=0.000000D+00  E= 1.867039D-01
              MO Center=  2.0D-04, -2.8D-08, -6.9D-01, r^2= 1.6D+01
   Bfn.  Coefficient  Atom+Function         Bfn.  Coefficient  Atom+Function  
  ----- ------------  ---------------      ----- ------------  ---------------
    73     10.633411   2 C  dxz             365      6.988095  11 H  s         
   374     -6.987265  12 H  s                56      6.681157   2 C  px        
    13     -5.455206   1 C  px               30      4.054810   1 C  dxz       
   228     -3.808750   6 C  px              271     -3.808725   7 C  px        
   230      3.462784   6 C  pz              273     -3.462468   7 C  pz        

 Vector   45  Occ=0.000000D+00  E= 1.896695D-01
              MO Center= -2.0D-04,  1.2D-07, -1.7D-01, r^2= 1.9D+01
   Bfn.  Coefficient  Atom+Function         Bfn.  Coefficient  Atom+Function  
  ----- ------------  ---------------      ----- ------------  ---------------
   383     18.374375  13 H  s                33     12.317500   1 C  dzz       
    76     11.430634   2 C  dzz             177    -11.324374   5 C  s         
   307    -10.779646   8 N  s                92     -7.338871   3 C  s         
   135     -7.339269   4 C  s               187      6.692220   5 C  pz        
    71      6.049844   2 C  dxx             347     -5.878061   9 H  s         

 Vector   46  Occ=0.000000D+00  E= 1.986927D-01
              MO Center=  2.3D-05, -2.2D-08,  1.6D+00, r^2= 1.7D+01
   Bfn.  Coefficient  Atom+Function         Bfn.  Coefficient  Atom+Function  
  ----- ------------  ---------------      ----- ------------  ---------------
     6     23.922276   1 C  s                49    -23.306983   2 C  s         
   307    -17.636896   8 N  s                76      7.106982   2 C  dzz       
   383     -5.363128  13 H  s               221      4.939607   6 C  s         
   264      4.939729   7 C  s               245      4.855914   6 C  dxz       
   288     -4.856009   7 C  dxz             365      4.730935  11 H  s         

 Vector   47  Occ=0.000000D+00  E= 2.249815D-01
              MO Center= -3.0D-06,  2.7D-09,  1.7D+00, r^2= 9.5D+00
   Bfn.  Coefficient  Atom+Function         Bfn.  Coefficient  Atom+Function  
  ----- ------------  ---------------      ----- ------------  ---------------
    75      6.509298   2 C  dyz              32      4.851564   1 C  dyz       
    14     -3.385093   1 C  py              115     -2.311626   3 C  dxy       
   158      2.311603   4 C  dxy              57      1.310252   2 C  py        
   315     -1.215680   8 N  py              100      1.005858   3 C  py        
   143      1.005864   4 C  py              118     -0.770325   3 C  dyz       

 Vector   48  Occ=0.000000D+00  E= 2.314623D-01
              MO Center=  1.8D-05,  2.9D-08, -3.7D-01, r^2= 1.8D+01
   Bfn.  Coefficient  Atom+Function         Bfn.  Coefficient  Atom+Function  
  ----- ------------  ---------------      ----- ------------  ---------------
   347     13.092828   9 H  s               356    -13.092904  10 H  s         
   365    -10.958854  11 H  s               374     10.958801  12 H  s         
   245     -8.096217   6 C  dxz             288     -8.096429   7 C  dxz       
   116     -6.985879   3 C  dxz             159     -6.986073   4 C  dxz       
   202     -6.291979   5 C  dxz             101     -6.235956   3 C  pz        

 Vector   49  Occ=0.000000D+00  E= 2.363562D-01
              MO Center=  2.1D-06,  2.2D-08, -6.5D-01, r^2= 1.5D+01
   Bfn.  Coefficient  Atom+Function         Bfn.  Coefficient  Atom+Function  
  ----- ------------  ---------------      ----- ------------  ---------------
   178     10.621216   5 C  s                92     -8.093500   3 C  s         
   135     -8.093732   4 C  s                 6      6.655016   1 C  s         
    49      6.210586   2 C  s               383      6.138992  13 H  s         
   307     -5.549066   8 N  s                71      4.778117   2 C  dxx       
   177     -4.536058   5 C  s                15      4.311759   1 C  pz        

 Vector   50  Occ=0.000000D+00  E= 2.485938D-01
              MO Center=  8.6D-05,  2.9D-08, -1.2D+00, r^2= 1.5D+01
   Bfn.  Coefficient  Atom+Function         Bfn.  Coefficient  Atom+Function  
  ----- ------------  ---------------      ----- ------------  ---------------
     6     13.105245   1 C  s                49    -11.626863   2 C  s         
   307     -6.831664   8 N  s               178     -4.056699   5 C  s         
   221     -3.576095   6 C  s               264     -3.575048   7 C  s         
   365      3.141600  11 H  s               374      3.141974  12 H  s         
   205      3.057291   5 C  dzz             177     -2.417234   5 C  s         

 Vector   51  Occ=0.000000D+00  E= 2.523609D-01
              MO Center= -1.0D-06,  6.5D-08, -1.4D+00, r^2= 1.5D+01
   Bfn.  Coefficient  Atom+Function         Bfn.  Coefficient  Atom+Function  
  ----- ------------  ---------------      ----- ------------  ---------------
   221    -13.328436   6 C  s               264     13.327806   7 C  s         
    92     12.368234   3 C  s               135    -12.367986   4 C  s         
    73    -10.132306   2 C  dxz              56     -7.274275   2 C  px        
   365     -7.188180  11 H  s               374      7.187561  12 H  s         
   347      5.396252   9 H  s               356     -5.396793  10 H  s         

 Vector   52  Occ=0.000000D+00  E= 2.536251D-01
              MO Center= -2.0D-05, -5.4D-08, -7.8D-01, r^2= 1.3D+01
   Bfn.  Coefficient  Atom+Function         Bfn.  Coefficient  Atom+Function  
  ----- ------------  ---------------      ----- ------------  ---------------
    75      4.856968   2 C  dyz             186     -3.752919   5 C  py        
    32      2.958957   1 C  dyz              14     -2.581751   1 C  py        
   244     -1.793250   6 C  dxy             287      1.793213   7 C  dxy       
   100      1.621677   3 C  py              143      1.621613   4 C  py        
   229      1.147486   6 C  py              272      1.147682   7 C  py        

 Vector   53  Occ=0.000000D+00  E= 2.568209D-01
              MO Center= -2.6D-05,  7.4D-08, -3.7D-01, r^2= 1.7D+01
   Bfn.  Coefficient  Atom+Function         Bfn.  Coefficient  Atom+Function  
  ----- ------------  ---------------      ----- ------------  ---------------
    49     20.160515   2 C  s                33    -11.585476   1 C  dzz       
   383     11.336399  13 H  s               178     11.105169   5 C  s         
    76     -9.689626   2 C  dzz             307      8.458535   8 N  s         
   221     -8.107184   6 C  s               264     -8.107954   7 C  s         
     6     -6.434403   1 C  s               200      6.191363   5 C  dxx       

 Vector   54  Occ=0.000000D+00  E= 2.585968D-01
              MO Center=  2.2D-05,  3.1D-08, -7.8D-02, r^2= 1.2D+01
   Bfn.  Coefficient  Atom+Function         Bfn.  Coefficient  Atom+Function  
  ----- ------------  ---------------      ----- ------------  ---------------
   229      2.137932   6 C  py              272     -2.137771   7 C  py        
   100     -1.220301   3 C  py              143      1.220323   4 C  py        
   118      1.173180   3 C  dyz             161     -1.173147   4 C  dyz       
   370     -0.992541  11 H  py              379      0.992520  12 H  py        
    72     -0.938246   2 C  dxy             115     -0.899233   3 C  dxy       

 Vector   55  Occ=0.000000D+00  E= 2.622489D-01
              MO Center= -2.4D-05, -4.2D-08, -6.6D-01, r^2= 1.4D+01
   Bfn.  Coefficient  Atom+Function         Bfn.  Coefficient  Atom+Function  
  ----- ------------  ---------------      ----- ------------  ---------------
    92      6.137153   3 C  s               135     -6.136979   4 C  s         
    73     -5.043918   2 C  dxz              56     -3.713884   2 C  px        
   114     -3.215454   3 C  dxx             157      3.215681   4 C  dxx       
   221      3.126937   6 C  s               264     -3.127977   7 C  s         
   202      3.071731   5 C  dxz             230     -2.809414   6 C  pz        

 Vector   56  Occ=0.000000D+00  E= 2.647067D-01
              MO Center=  9.0D-06, -3.2D-09, -1.2D+00, r^2= 1.3D+01
   Bfn.  Coefficient  Atom+Function         Bfn.  Coefficient  Atom+Function  
  ----- ------------  ---------------      ----- ------------  ---------------
   365     16.036314  11 H  s               374     16.036290  12 H  s         
   177    -12.438013   5 C  s               347     11.975905   9 H  s         
   356     11.975334  10 H  s               220     -9.383704   6 C  s         
   263     -9.383480   7 C  s               383      8.845325  13 H  s         
   178     -8.592172   5 C  s               221      7.795819   6 C  s         

 Vector   57  Occ=0.000000D+00  E= 2.903934D-01
              MO Center=  1.6D-05,  6.5D-08, -7.3D-01, r^2= 1.3D+01
   Bfn.  Coefficient  Atom+Function         Bfn.  Coefficient  Atom+Function  
  ----- ------------  ---------------      ----- ------------  ---------------
   178     14.108302   5 C  s               221    -11.283138   6 C  s         
   264    -11.283080   7 C  s                 6     -8.045021   1 C  s         
    92      6.776473   3 C  s               135      6.776667   4 C  s         
   347     -6.590015   9 H  s               356     -6.589514  10 H  s         
    49      4.738655   2 C  s               306     -4.532926   8 N  s         

 Vector   58  Occ=0.000000D+00  E= 2.935054D-01
              MO Center= -2.4D-05,  3.1D-08,  3.3D-01, r^2= 1.5D+01
   Bfn.  Coefficient  Atom+Function         Bfn.  Coefficient  Atom+Function  
  ----- ------------  ---------------      ----- ------------  ---------------
    73      7.105230   2 C  dxz              30      5.267159   1 C  dxz       
   347     -4.796984   9 H  s               356      4.797319  10 H  s         
   248      4.446388   6 C  dzz             291     -4.446439   7 C  dzz       
   202      4.128419   5 C  dxz              13     -3.931985   1 C  px        
    56      3.740304   2 C  px               99      3.372547   3 C  px        

 Vector   59  Occ=0.000000D+00  E= 2.940338D-01
              MO Center=  8.2D-06, -2.6D-08, -5.3D-01, r^2= 6.3D+00
   Bfn.  Coefficient  Atom+Function         Bfn.  Coefficient  Atom+Function  
  ----- ------------  ---------------      ----- ------------  ---------------
    57      2.946795   2 C  py               14     -2.428049   1 C  py        
    32      2.421034   1 C  dyz              75      2.128994   2 C  dyz       
   115      0.794390   3 C  dxy             158     -0.794454   4 C  dxy       
   100     -0.777917   3 C  py              143     -0.777958   4 C  py        
   370      0.641536  11 H  py              379      0.641537  12 H  py        

 Vector   60  Occ=0.000000D+00  E= 3.021881D-01
              MO Center=  9.0D-06, -4.6D-08,  6.1D-02, r^2= 1.3D+01
   Bfn.  Coefficient  Atom+Function         Bfn.  Coefficient  Atom+Function  
  ----- ------------  ---------------      ----- ------------  ---------------
    72      9.169361   2 C  dxy             100     -4.922550   3 C  py        
   143      4.922473   4 C  py              115      3.249285   3 C  dxy       
   158      3.249199   4 C  dxy              29     -3.040748   1 C  dxy       
   118     -2.938857   3 C  dyz             161      2.938870   4 C  dyz       
   201     -2.368631   5 C  dxy             229      1.262898   6 C  py        

 Vector   61  Occ=0.000000D+00  E= 3.038862D-01
              MO Center=  1.0D-05,  1.7D-07, -2.7D-01, r^2= 1.4D+01
   Bfn.  Coefficient  Atom+Function         Bfn.  Coefficient  Atom+Function  
  ----- ------------  ---------------      ----- ------------  ---------------
    49     18.507533   2 C  s                92    -17.438230   3 C  s         
   135    -17.438348   4 C  s               221     13.642148   6 C  s         
   264     13.642325   7 C  s               178    -11.445291   5 C  s         
    76      6.735507   2 C  dzz             347      6.729812   9 H  s         
   356      6.729469  10 H  s               365     -5.576929  11 H  s         

 Vector   62  Occ=0.000000D+00  E= 3.108652D-01
              MO Center= -1.4D-05,  3.3D-08, -1.0D+00, r^2= 1.5D+01
   Bfn.  Coefficient  Atom+Function         Bfn.  Coefficient  Atom+Function  
  ----- ------------  ---------------      ----- ------------  ---------------
    49     17.945216   2 C  s                 6    -11.627187   1 C  s         
   306    -11.147425   8 N  s                33      8.095264   1 C  dzz       
   365     -8.040312  11 H  s               374     -8.040311  12 H  s         
    76      7.311528   2 C  dzz              71      6.170877   2 C  dxx       
   178     -6.002534   5 C  s               230     -5.441573   6 C  pz        

 Vector   63  Occ=0.000000D+00  E= 3.213364D-01
              MO Center= -2.3D-05, -4.9D-08, -1.2D+00, r^2= 1.5D+01
   Bfn.  Coefficient  Atom+Function         Bfn.  Coefficient  Atom+Function  
  ----- ------------  ---------------      ----- ------------  ---------------
    92      7.696576   3 C  s               135     -7.697257   4 C  s         
   114     -5.043930   3 C  dxx             157      5.043686   4 C  dxx       
   221     -4.976883   6 C  s               264      4.977356   7 C  s         
   119     -4.555097   3 C  dzz             162      4.555020   4 C  dzz       
   185      4.224305   5 C  px               73      4.124365   2 C  dxz       

 Vector   64  Occ=0.000000D+00  E= 3.291109D-01
              MO Center= -3.5D-05,  8.3D-09, -9.3D-01, r^2= 1.2D+01
   Bfn.  Coefficient  Atom+Function         Bfn.  Coefficient  Atom+Function  
  ----- ------------  ---------------      ----- ------------  ---------------
    75      6.098562   2 C  dyz             100      5.441523   3 C  py        
   143      5.441648   4 C  py              229     -5.318801   6 C  py        
   272     -5.318877   7 C  py              186      4.576318   5 C  py        
    57     -3.534256   2 C  py              115     -3.107428   3 C  dxy       
   158      3.107456   4 C  dxy             204      2.806239   5 C  dyz       

 Vector   65  Occ=0.000000D+00  E= 3.332573D-01
              MO Center= -2.8D-07, -3.2D-08, -7.6D-01, r^2= 1.3D+01
   Bfn.  Coefficient  Atom+Function         Bfn.  Coefficient  Atom+Function  
  ----- ------------  ---------------      ----- ------------  ---------------
   383     20.904389  13 H  s                76    -18.966570   2 C  dzz       
    33    -16.714392   1 C  dzz              49    -16.159006   2 C  s         
   306     15.964454   8 N  s               187      9.408306   5 C  pz        
   177     -8.993033   5 C  s               365      8.428508  11 H  s         
   374      8.428142  12 H  s                71      7.508540   2 C  dxx       

 Vector   66  Occ=0.000000D+00  E= 3.511639D-01
              MO Center=  8.5D-06, -2.7D-08, -1.3D-02, r^2= 1.5D+01
   Bfn.  Coefficient  Atom+Function         Bfn.  Coefficient  Atom+Function  
  ----- ------------  ---------------      ----- ------------  ---------------
    76     33.772196   2 C  dzz              33     25.012648   1 C  dzz       
   306    -22.663745   8 N  s               177    -21.062822   5 C  s         
   383     20.376096  13 H  s               365     19.482486  11 H  s         
   374     19.482252  12 H  s                49    -12.909642   2 C  s         
   245     12.477508   6 C  dxz             288    -12.477324   7 C  dxz       

 Vector   67  Occ=0.000000D+00  E= 3.524058D-01
              MO Center= -1.0D-05,  2.4D-08, -8.6D-01, r^2= 1.4D+01
   Bfn.  Coefficient  Atom+Function         Bfn.  Coefficient  Atom+Function  
  ----- ------------  ---------------      ----- ------------  ---------------
   365     24.391638  11 H  s               374    -24.391661  12 H  s         
   347     22.950934   9 H  s               356    -22.950906  10 H  s         
    91    -13.794377   3 C  s               134     13.794447   4 C  s         
   228    -12.573564   6 C  px              271    -12.573603   7 C  px        
   220    -12.452517   6 C  s               263     12.452658   7 C  s         

 Vector   68  Occ=0.000000D+00  E= 3.621445D-01
              MO Center=  1.6D-05,  3.6D-08,  5.3D-01, r^2= 1.4D+01
   Bfn.  Coefficient  Atom+Function         Bfn.  Coefficient  Atom+Function  
  ----- ------------  ---------------      ----- ------------  ---------------
    49     23.661333   2 C  s                 6    -19.854711   1 C  s         
   365     -6.978235  11 H  s               374     -6.978585  12 H  s         
    33      6.559119   1 C  dzz             243      5.397590   6 C  dxx       
   286      5.397501   7 C  dxx              74     -5.274123   2 C  dyy       
   307      5.179295   8 N  s               200      4.964388   5 C  dxx       

 Vector   69  Occ=0.000000D+00  E= 3.745901D-01
              MO Center=  1.5D-05,  2.6D-09,  6.4D-01, r^2= 1.1D+01
   Bfn.  Coefficient  Atom+Function         Bfn.  Coefficient  Atom+Function  
  ----- ------------  ---------------      ----- ------------  ---------------
    57      6.206823   2 C  py               75     -4.742903   2 C  dyz       
   115      3.833364   3 C  dxy             158     -3.833478   4 C  dxy       
    14      2.076061   1 C  py               32      2.069235   1 C  dyz       
   100     -2.052418   3 C  py              143     -2.052507   4 C  py        
   315     -1.558821   8 N  py              247     -1.505022   6 C  dyz       

 Vector   70  Occ=0.000000D+00  E= 3.839919D-01
              MO Center=  2.5D-05,  2.5D-08, -5.9D-01, r^2= 1.3D+01
   Bfn.  Coefficient  Atom+Function         Bfn.  Coefficient  Atom+Function  
  ----- ------------  ---------------      ----- ------------  ---------------
    49      8.785150   2 C  s               245     -7.266710   6 C  dxz       
   288      7.266753   7 C  dxz             205     -6.749008   5 C  dzz       
   200     -6.545409   5 C  dxx             248      5.933994   6 C  dzz       
   291      5.933500   7 C  dzz              71      4.854800   2 C  dxx       
   178      4.361762   5 C  s                15      4.311373   1 C  pz        

 Vector   71  Occ=0.000000D+00  E= 3.895661D-01
              MO Center=  7.8D-06, -1.7D-07, -2.1D+00, r^2= 1.1D+01
   Bfn.  Coefficient  Atom+Function         Bfn.  Coefficient  Atom+Function  
  ----- ------------  ---------------      ----- ------------  ---------------
   244      4.354193   6 C  dxy             287      4.354210   7 C  dxy       
    72      4.232171   2 C  dxy             247     -3.597418   6 C  dyz       
   290      3.597364   7 C  dyz             370     -3.481446  11 H  py        
   379      3.481444  12 H  py              118     -3.438775   3 C  dyz       
   161      3.438728   4 C  dyz             201      2.327345   5 C  dxy       

 Vector   72  Occ=0.000000D+00  E= 3.933431D-01
              MO Center=  3.4D-05,  8.2D-08, -1.3D+00, r^2= 1.5D+01
   Bfn.  Coefficient  Atom+Function         Bfn.  Coefficient  Atom+Function  
  ----- ------------  ---------------      ----- ------------  ---------------
    73      8.398774   2 C  dxz             243     -8.007569   6 C  dxx       
   286      8.007384   7 C  dxx             245     -7.776543   6 C  dxz       
   288     -7.776263   7 C  dxz             248      6.855702   6 C  dzz       
   291     -6.855294   7 C  dzz             371      6.051239  11 H  pz        
   380     -6.050973  12 H  pz              185     -5.745705   5 C  px        

 Vector   73  Occ=0.000000D+00  E= 3.955074D-01
              MO Center=  3.3D-04,  1.8D-08,  5.2D-01, r^2= 1.1D+01
   Bfn.  Coefficient  Atom+Function         Bfn.  Coefficient  Atom+Function  
  ----- ------------  ---------------      ----- ------------  ---------------
   115      6.664488   3 C  dxy             158      6.663434   4 C  dxy       
    72      5.603141   2 C  dxy             352     -4.075454   9 H  py        
   361      4.074718  10 H  py              100     -2.996997   3 C  py        
   143      2.996634   4 C  py              247      2.849131   6 C  dyz       
   290     -2.849046   7 C  dyz             244     -2.654880   6 C  dxy       

 Vector   74  Occ=0.000000D+00  E= 3.991893D-01
              MO Center= -3.2D-04, -2.9D-07, -1.7D+00, r^2= 1.3D+01
   Bfn.  Coefficient  Atom+Function         Bfn.  Coefficient  Atom+Function  
  ----- ------------  ---------------      ----- ------------  ---------------
   204     -9.514448   5 C  dyz              75      9.154839   2 C  dyz       
   388     -5.182799  13 H  py               14     -4.880149   1 C  py        
   244     -4.649291   6 C  dxy             287      4.648538   7 C  dxy       
   115     -4.095940   3 C  dxy             158      4.097518   4 C  dxy       
   118     -3.481412   3 C  dyz             161     -3.481948   4 C  dyz       

 Vector   75  Occ=0.000000D+00  E= 4.019478D-01
              MO Center= -1.9D-04, -5.9D-08, -2.0D+00, r^2= 1.0D+01
   Bfn.  Coefficient  Atom+Function         Bfn.  Coefficient  Atom+Function  
  ----- ------------  ---------------      ----- ------------  ---------------
   202     18.751717   5 C  dxz             185    -14.595577   5 C  px        
    56    -12.659652   2 C  px               73     -8.225138   2 C  dxz       
   387      8.255404  13 H  px              248      7.713900   6 C  dzz       
   291     -7.721858   7 C  dzz             116     -7.381966   3 C  dxz       
   159     -7.387742   4 C  dxz             230     -7.239506   6 C  pz        

 Vector   76  Occ=0.000000D+00  E= 4.025768D-01
              MO Center=  1.5D-04,  8.7D-08, -6.2D-01, r^2= 1.4D+01
   Bfn.  Coefficient  Atom+Function         Bfn.  Coefficient  Atom+Function  
  ----- ------------  ---------------      ----- ------------  ---------------
    76     18.566764   2 C  dzz              33     14.244445   1 C  dzz       
   306    -13.973164   8 N  s               383     12.934415  13 H  s         
   245     11.868302   6 C  dxz             288    -11.873627   7 C  dxz       
   200     10.434260   5 C  dxx             101      9.829549   3 C  pz        
   144      9.835770   4 C  pz              177     -8.196547   5 C  s         

 Vector   77  Occ=0.000000D+00  E= 4.085310D-01
              MO Center=  2.5D-04, -9.0D-08, -1.6D-01, r^2= 1.2D+01
   Bfn.  Coefficient  Atom+Function         Bfn.  Coefficient  Atom+Function  
  ----- ------------  ---------------      ----- ------------  ---------------
   306     24.724889   8 N  s                15    -17.313437   1 C  pz        
    33    -15.677728   1 C  dzz              49     -9.721692   2 C  s         
    76     -9.276786   2 C  dzz             243      7.992403   6 C  dxx       
   286      7.991968   7 C  dxx             365     -7.581855  11 H  s         
   374     -7.580466  12 H  s               177      6.939581   5 C  s         

 Vector   78  Occ=0.000000D+00  E= 4.106857D-01
              MO Center= -2.7D-04,  3.7D-08,  3.8D-01, r^2= 1.6D+01
   Bfn.  Coefficient  Atom+Function         Bfn.  Coefficient  Atom+Function  
  ----- ------------  ---------------      ----- ------------  ---------------
    56      8.908290   2 C  px              119     -7.836186   3 C  dzz       
   162      7.838459   4 C  dzz             202      7.792056   5 C  dxz       
    73      7.478747   2 C  dxz             114      6.745908   3 C  dxx       
   157     -6.744659   4 C  dxx             353      6.155506   9 H  pz        
   362     -6.155820  10 H  pz              101     -5.657810   3 C  pz        

 Vector   79  Occ=0.000000D+00  E= 4.242384D-01
              MO Center= -2.0D-05,  1.4D-07, -1.3D+00, r^2= 1.1D+01
   Bfn.  Coefficient  Atom+Function         Bfn.  Coefficient  Atom+Function  
  ----- ------------  ---------------      ----- ------------  ---------------
    75      8.158330   2 C  dyz              14     -5.637182   1 C  py        
   244     -3.034870   6 C  dxy             287      3.034835   7 C  dxy       
    32      2.928277   1 C  dyz             186     -2.783376   5 C  py        
   370      2.543135  11 H  py              379      2.543130  12 H  py        
   118     -2.469134   3 C  dyz             161     -2.469062   4 C  dyz       

 Vector   80  Occ=0.000000D+00  E= 4.296806D-01
              MO Center=  1.9D-04,  4.0D-08, -7.9D-01, r^2= 1.1D+01
   Bfn.  Coefficient  Atom+Function         Bfn.  Coefficient  Atom+Function  
  ----- ------------  ---------------      ----- ------------  ---------------
   347     17.497072   9 H  s               356    -17.491714  10 H  s         
   365    -16.494158  11 H  s               374     16.499545  12 H  s         
    73    -15.193824   2 C  dxz             202    -11.348489   5 C  dxz       
    92     10.883215   3 C  s               135    -10.878470   4 C  s         
   221    -10.691799   6 C  s               264     10.692552   7 C  s         

 Vector   81  Occ=0.000000D+00  E= 4.313325D-01
              MO Center= -1.9D-04,  9.4D-08, -4.2D-01, r^2= 1.3D+01
   Bfn.  Coefficient  Atom+Function         Bfn.  Coefficient  Atom+Function  
  ----- ------------  ---------------      ----- ------------  ---------------
    49     19.915773   2 C  s               383     15.741934  13 H  s         
    71     14.522909   2 C  dxx             347    -11.444528   9 H  s         
   356    -11.452197  10 H  s               365    -10.819648  11 H  s         
   374    -10.813006  12 H  s                92    -10.441687   3 C  s         
   135    -10.446227   4 C  s               187      8.599788   5 C  pz        

 Vector   82  Occ=0.000000D+00  E= 4.370744D-01
              MO Center=  4.9D-06, -2.5D-08,  3.8D-01, r^2= 1.6D+01
   Bfn.  Coefficient  Atom+Function         Bfn.  Coefficient  Atom+Function  
  ----- ------------  ---------------      ----- ------------  ---------------
    33     12.213772   1 C  dzz             230    -11.197877   6 C  pz        
   273    -11.197274   7 C  pz              347    -11.150200   9 H  s         
   356    -11.151738  10 H  s                99     10.863178   3 C  px        
   142    -10.863937   4 C  px               71      9.307112   2 C  dxx       
   245     -9.004801   6 C  dxz             288      9.004656   7 C  dxz       

 Vector   83  Occ=0.000000D+00  E= 4.485676D-01
              MO Center=  1.4D-05, -5.6D-08,  5.4D-01, r^2= 1.2D+01
   Bfn.  Coefficient  Atom+Function         Bfn.  Coefficient  Atom+Function  
  ----- ------------  ---------------      ----- ------------  ---------------
   244      8.082854   6 C  dxy             287      8.082576   7 C  dxy       
   115     -6.267210   3 C  dxy             158     -6.266819   4 C  dxy       
    72     -5.230010   2 C  dxy             370     -3.657244  11 H  py        
   379      3.657152  12 H  py              100      2.882913   3 C  py        
   143     -2.882738   4 C  py              201      2.421248   5 C  dxy       

 Vector   84  Occ=0.000000D+00  E= 4.626562D-01
              MO Center= -2.0D-05,  3.7D-08, -1.3D-01, r^2= 1.1D+01
   Bfn.  Coefficient  Atom+Function         Bfn.  Coefficient  Atom+Function  
  ----- ------------  ---------------      ----- ------------  ---------------
   347     23.437192   9 H  s               356    -23.436783  10 H  s         
   116    -17.849351   3 C  dxz             159    -17.849473   4 C  dxz       
    73    -17.384416   2 C  dxz             185    -12.331508   5 C  px        
   245     11.511066   6 C  dxz             288     11.510709   7 C  dxz       
    99    -11.305023   3 C  px              142    -11.304653   4 C  px        

 Vector   85  Occ=0.000000D+00  E= 4.809127D-01
              MO Center= -1.4D-06, -9.7D-06,  3.4D+00, r^2= 1.2D+01
   Bfn.  Coefficient  Atom+Function         Bfn.  Coefficient  Atom+Function  
  ----- ------------  ---------------      ----- ------------  ---------------
   307     26.404211   8 N  s                33    -17.531086   1 C  dzz       
     6    -17.108314   1 C  s               306    -15.488155   8 N  s         
    15     14.231225   1 C  pz                5     10.906270   1 C  s         
    49     10.864880   2 C  s               316     10.093622   8 N  pz        
    76     -8.785137   2 C  dzz             187      8.468526   5 C  pz        

 Vector   86  Occ=0.000000D+00  E= 4.819806D-01
              MO Center= -2.0D-05,  9.4D-06,  4.1D-02, r^2= 1.7D+01
   Bfn.  Coefficient  Atom+Function         Bfn.  Coefficient  Atom+Function  
  ----- ------------  ---------------      ----- ------------  ---------------
    75     20.473543   2 C  dyz             204     19.441398   5 C  dyz       
   244     17.777788   6 C  dxy             287    -17.777939   7 C  dxy       
   115    -17.044418   3 C  dxy             158     17.044537   4 C  dxy       
   186     14.453232   5 C  py              229    -12.857484   6 C  py        
   272    -12.857551   7 C  py               57    -12.050216   2 C  py        

 Vector   87  Occ=0.000000D+00  E= 5.016497D-01
              MO Center=  2.4D-05,  1.3D-07, -5.0D-01, r^2= 1.2D+01
   Bfn.  Coefficient  Atom+Function         Bfn.  Coefficient  Atom+Function  
  ----- ------------  ---------------      ----- ------------  ---------------
   365     37.522690  11 H  s               374    -37.522320  12 H  s         
   245     21.776627   6 C  dxz             288     21.776346   7 C  dxz       
   347     21.061620   9 H  s               356    -21.060838  10 H  s         
    91    -17.281273   3 C  s               134     17.281047   4 C  s         
   220    -16.229592   6 C  s               263     16.229592   7 C  s         

 Vector   88  Occ=0.000000D+00  E= 5.083181D-01
              MO Center= -1.2D-05,  2.9D-07, -1.2D+00, r^2= 1.2D+01
   Bfn.  Coefficient  Atom+Function         Bfn.  Coefficient  Atom+Function  
  ----- ------------  ---------------      ----- ------------  ---------------
   383     35.424995  13 H  s               205    -20.949902   5 C  dzz       
   178     19.795016   5 C  s               347    -19.876772   9 H  s         
   356    -19.876243  10 H  s               230     17.343989   6 C  pz        
   273     17.343525   7 C  pz              116     16.461835   3 C  dxz       
   159    -16.461403   4 C  dxz             221    -15.432723   6 C  s         

 Vector   89  Occ=0.000000D+00  E= 5.110489D-01
              MO Center= -2.5D-06,  5.2D-07, -1.6D+00, r^2= 1.3D+01
   Bfn.  Coefficient  Atom+Function         Bfn.  Coefficient  Atom+Function  
  ----- ------------  ---------------      ----- ------------  ---------------
   383     53.575676  13 H  s               205    -29.156774   5 C  dzz       
   177    -19.486169   5 C  s               230     15.943322   6 C  pz        
   273     15.943246   7 C  pz               49     13.638730   2 C  s         
    92    -13.527204   3 C  s               135    -13.527267   4 C  s         
   220    -13.378540   6 C  s               263    -13.378532   7 C  s         

 Vector   90  Occ=0.000000D+00  E= 5.167023D-01
              MO Center= -2.6D-05,  1.1D-07,  1.2D-01, r^2= 1.5D+01
   Bfn.  Coefficient  Atom+Function         Bfn.  Coefficient  Atom+Function  
  ----- ------------  ---------------      ----- ------------  ---------------
[...]
     Magnetic Dipole                               0.0000000000
     Total Oscillator Strength                     0.2532210591

     Occ.   23  a   ---  Virt.   37  a       -0.05779
     Occ.   25  a   ---  Virt.   33  a       -0.12282
     Occ.   25  a   ---  Virt.   36  a        0.11639
     Occ.   26  a   ---  Virt.   29  a        0.37351
     Occ.   27  a   ---  Virt.   28  a       -0.89288
  ----------------------------------------------------------------------------
  Root   3 singlet a              0.243153756 a.u.                6.6166 eV 
  ----------------------------------------------------------------------------
     Transition Moments    X -0.00000   Y -0.00000   Z  0.00000
     Transition Moments   XX  0.00000  XY -0.13643  XZ  0.00000
     Transition Moments   YY -0.00000  YZ  0.00001  ZZ  0.00000
     Dipole Oscillator Strength                    0.0000000000
     Electric Quadrupole                           0.0000000014
     Magnetic Dipole                               0.0000003575
     Total Oscillator Strength                     0.0000003589

     Occ.   22  a   ---  Virt.   28  a       -0.06213
     Occ.   22  a   ---  Virt.   37  a       -0.11517
     Occ.   23  a   ---  Virt.   36  a       -0.05482
     Occ.   25  a   ---  Virt.   28  a       -0.95067
     Occ.   25  a   ---  Virt.   37  a        0.22508
     Occ.   27  a   ---  Virt.   33  a       -0.08269
     Occ.   27  a   ---  Virt.   36  a        0.08586
  ----------------------------------------------------------------------------
  Root   4 singlet a              0.264626802 a.u.                7.2009 eV 
  ----------------------------------------------------------------------------
     Transition Moments    X  0.00041   Y  0.00000   Z  1.94975
     Transition Moments   XX -1.00655  XY -0.00000  XZ -0.00066
     Transition Moments   YY -0.07699  YZ -0.00000  ZZ -0.29010
     Dipole Oscillator Strength                    0.6706567010
     Electric Quadrupole                           0.0000000234
     Magnetic Dipole                               0.0000000000
     Total Oscillator Strength                     0.6706567244

     Occ.   23  a   ---  Virt.   28  a        0.36493
     Occ.   23  a   ---  Virt.   37  a       -0.07794
     Occ.   25  a   ---  Virt.   33  a       -0.15189
     Occ.   25  a   ---  Virt.   36  a        0.14368
     Occ.   26  a   ---  Virt.   29  a       -0.81738
     Occ.   27  a   ---  Virt.   28  a       -0.27362
     Occ.   27  a   ---  Virt.   37  a        0.15963
     Occ.   27  a   ---  Virt.   59  a        0.05094
  ----------------------------------------------------------------------------
  Root   5 singlet a              0.265533966 a.u.                7.2255 eV 
  ----------------------------------------------------------------------------
     Transition Moments    X -0.00000   Y -0.19680   Z  0.00000
     Transition Moments   XX -0.00000  XY -0.00004  XZ  0.00000
     Transition Moments   YY -0.00000  YZ  1.00724  ZZ  0.00000
     Dipole Oscillator Strength                    0.0068564747
     Electric Quadrupole                           0.0000001011
     Magnetic Dipole                               0.0000002349
     Total Oscillator Strength                     0.0068568107

     Occ.   23  a   ---  Virt.   30  a        0.08265
     Occ.   23  a   ---  Virt.   32  a       -0.11936
     Occ.   27  a   ---  Virt.   30  a        0.94396
     Occ.   27  a   ---  Virt.   32  a        0.14064
     Occ.   27  a   ---  Virt.   34  a       -0.11720
     Occ.   27  a   ---  Virt.   35  a       -0.08179
     Occ.   27  a   ---  Virt.   39  a       -0.09409
     Occ.   27  a   ---  Virt.   46  a        0.14275
  ----------------------------------------------------------------------------
  Root   6 singlet a              0.265720562 a.u.                7.2306 eV 
  ----------------------------------------------------------------------------
     Transition Moments    X  0.00000   Y  0.00002   Z  0.00000
     Transition Moments   XX -0.00000  XY  0.46046  XZ -0.00000
     Transition Moments   YY -0.00000  YZ -0.00013  ZZ  0.00000
     Dipole Oscillator Strength                    0.0000000001
     Electric Quadrupole                           0.0000000212
     Magnetic Dipole                               0.0000000001
     Total Oscillator Strength                     0.0000000214

     Occ.   22  a   ---  Virt.   28  a        0.20319
     Occ.   23  a   ---  Virt.   33  a        0.23425
     Occ.   23  a   ---  Virt.   36  a       -0.27976
     Occ.   25  a   ---  Virt.   28  a        0.13248
     Occ.   26  a   ---  Virt.   30  a        0.09465
     Occ.   27  a   ---  Virt.   31  a        0.08061
     Occ.   27  a   ---  Virt.   33  a       -0.63554
     Occ.   27  a   ---  Virt.   36  a        0.61601
  ----------------------------------------------------------------------------
  Root   7 singlet a              0.266266498 a.u.                7.2455 eV 
  ----------------------------------------------------------------------------
     Transition Moments    X  1.82602   Y -0.00000   Z -0.00046
     Transition Moments   XX  0.00021  XY  0.00000  XZ -2.79409
     Transition Moments   YY  0.00001  YZ  0.00000  ZZ  0.00010
     Dipole Oscillator Strength                    0.5918846557
     Electric Quadrupole                           0.0000007848
     Magnetic Dipole                               0.0000007097
     Total Oscillator Strength                     0.5918861502

     Occ.   16  a   ---  Virt.   33  a        0.05707
     Occ.   21  a   ---  Virt.   36  a       -0.05105
     Occ.   24  a   ---  Virt.   36  a       -0.05184
     Occ.   26  a   ---  Virt.   28  a        0.61859
     Occ.   26  a   ---  Virt.   40  a       -0.05379
     Occ.   26  a   ---  Virt.   52  a        0.05658
     Occ.   26  a   ---  Virt.   59  a        0.07986
     Occ.   27  a   ---  Virt.   29  a       -0.73024
  ----------------------------------------------------------------------------
  Root   8 singlet a              0.272253709 a.u.                7.4084 eV 
  ----------------------------------------------------------------------------
     Transition Moments    X -0.00000   Y -0.00002   Z  0.00000
     Transition Moments   XX -0.00000  XY  2.33130  XZ  0.00000
     Transition Moments   YY -0.00000  YZ  0.00005  ZZ -0.00000
     Dipole Oscillator Strength                    0.0000000001
     Electric Quadrupole                           0.0000005840
     Magnetic Dipole                               0.0000016929
     Total Oscillator Strength                     0.0000022770

     Occ.   20  a   ---  Virt.   31  a       -0.08601
     Occ.   22  a   ---  Virt.   28  a       -0.06367
     Occ.   23  a   ---  Virt.   31  a        0.08135
     Occ.   26  a   ---  Virt.   30  a        0.95909
     Occ.   26  a   ---  Virt.   35  a       -0.11154
     Occ.   26  a   ---  Virt.   39  a       -0.06508
     Occ.   26  a   ---  Virt.   46  a        0.14593
     Occ.   26  a   ---  Virt.   50  a       -0.07829
     Occ.   27  a   ---  Virt.   36  a       -0.09197

              Target root =      1
          Target symmetry = none
      Ground state energy =   -324.294471085058
        Excitation energy =      0.192531221482
     Excited state energy =   -324.101939863576

  stored tddft:energy   -324.10193986357586     

    8 smallest eigenvalue differences (eV) 
--------------------------------------------------------
  No. Spin  Occ  Vir  Irrep   E(Occ)    E(Vir)   E(Diff)
--------------------------------------------------------
    1    1   27   28 a        -0.358     0.002     9.801
    2    1   26   28 a        -0.370     0.002    10.135
    3    1   27   29 a        -0.358     0.028    10.511
    4    1   26   29 a        -0.370     0.028    10.844
    5    1   27   30 a        -0.358     0.046    10.986
    6    1   26   30 a        -0.370     0.046    11.320
    7    1   27   31 a        -0.358     0.067    11.562
    8    1   27   32 a        -0.358     0.070    11.635
--------------------------------------------------------

  Entering Davidson iterations
  Restricted triplet excited states

  Iter   NTrls   NConv    DeltaV     DeltaE      Time   
  ----  ------  ------  ---------  ---------  --------- 
    1      8       0     0.73E-01   0.10+100      171.5
    2     16       0     0.16E-01   0.15E-01      173.9
    3     24       0     0.38E-01   0.35E-02      174.8
    4     32       0     0.24E+00   0.20E-01      174.2
    5     40       0     0.84E-01   0.27E-01      173.8
    6     48       1     0.51E-01   0.77E-02      172.7
    7     55       3     0.57E-01   0.41E-02      167.9
    8     60       4     0.26E-01   0.53E-02      150.0
    9     64       4     0.20E-01   0.13E-02      141.2
   10     68       4     0.21E-01   0.11E-02      141.4
   11     72       5     0.86E-02   0.39E-03      141.5
   12     75       6     0.39E-02   0.59E-04      133.2
   13     77       7     0.13E-02   0.10E-04      123.3
   14     78       7     0.49E-03   0.89E-06      115.3
   15     79       7     0.17E-03   0.13E-06      115.6
   16     80       8     0.79E-04   0.14E-07      116.4
  ----  ------  ------  ---------  ---------  --------- 
  Convergence criterion met

  Ground state a        -324.294471085058 a.u.

  ----------------------------------------------------------------------------
  Root   1 triplet a              0.140791659 a.u.                3.8311 eV 
  ----------------------------------------------------------------------------
     Transition Moments                    Spin forbidden
     Oscillator Strength                   Spin forbidden

     Occ.   20  a   ---  Virt.   28  a        0.05662
     Occ.   20  a   ---  Virt.   47  a        0.06444
     Occ.   23  a   ---  Virt.   28  a        0.06575
     Occ.   23  a   ---  Virt.   37  a        0.14921
     Occ.   26  a   ---  Virt.   29  a       -0.39285
     Occ.   27  a   ---  Virt.   28  a        0.88856
     Occ.   27  a   ---  Virt.   52  a       -0.05808
  ----------------------------------------------------------------------------
  Root   2 triplet a              0.165098560 a.u.                4.4926 eV 
  ----------------------------------------------------------------------------
     Transition Moments                    Spin forbidden
     Oscillator Strength                   Spin forbidden

     Occ.   26  a   ---  Virt.   28  a        0.95097
     Occ.   26  a   ---  Virt.   37  a        0.10286
     Occ.   26  a   ---  Virt.   52  a       -0.08099
     Occ.   27  a   ---  Virt.   29  a       -0.26547
  ----------------------------------------------------------------------------
  Root   3 triplet a              0.170691152 a.u.                4.6447 eV 
  ----------------------------------------------------------------------------
     Transition Moments                    Spin forbidden
     Oscillator Strength                   Spin forbidden

     Occ.   20  a   ---  Virt.   37  a        0.05460
     Occ.   26  a   ---  Virt.   29  a        0.90317
     Occ.   26  a   ---  Virt.   54  a       -0.08146
     Occ.   27  a   ---  Virt.   28  a        0.40619
  ----------------------------------------------------------------------------
  Root   4 triplet a              0.184305796 a.u.                5.0152 eV 
  ----------------------------------------------------------------------------
     Transition Moments                    Spin forbidden
     Oscillator Strength                   Spin forbidden

     Occ.   23  a   ---  Virt.   29  a        0.20398
     Occ.   26  a   ---  Virt.   28  a        0.26824
     Occ.   27  a   ---  Virt.   29  a        0.93660
     Occ.   27  a   ---  Virt.   54  a       -0.05963
  ----------------------------------------------------------------------------
  Root   5 triplet a              0.222179947 a.u.                6.0458 eV 
  ----------------------------------------------------------------------------
     Transition Moments                    Spin forbidden
     Oscillator Strength                   Spin forbidden

     Occ.   20  a   ---  Virt.   37  a        0.14003
     Occ.   22  a   ---  Virt.   33  a        0.07208
     Occ.   22  a   ---  Virt.   36  a       -0.08448
     Occ.   23  a   ---  Virt.   28  a       -0.76692
     Occ.   23  a   ---  Virt.   37  a        0.20907
     Occ.   23  a   ---  Virt.   43  a       -0.07604
     Occ.   23  a   ---  Virt.   47  a        0.06115
     Occ.   25  a   ---  Virt.   33  a       -0.19514
     Occ.   25  a   ---  Virt.   36  a        0.22534
     Occ.   27  a   ---  Virt.   37  a       -0.45301
     Occ.   27  a   ---  Virt.   40  a       -0.05071
     Occ.   27  a   ---  Virt.   52  a        0.08925
  ----------------------------------------------------------------------------
  Root   6 triplet a              0.226334840 a.u.                6.1589 eV 
  ----------------------------------------------------------------------------
     Transition Moments                    Spin forbidden
     Oscillator Strength                   Spin forbidden

     Occ.   22  a   ---  Virt.   37  a       -0.13516
     Occ.   23  a   ---  Virt.   33  a       -0.15518
     Occ.   23  a   ---  Virt.   36  a        0.18290
     Occ.   25  a   ---  Virt.   28  a       -0.83715
     Occ.   25  a   ---  Virt.   37  a        0.29673
     Occ.   27  a   ---  Virt.   33  a        0.22771
     Occ.   27  a   ---  Virt.   36  a       -0.24121
  ----------------------------------------------------------------------------
  Root   7 triplet a              0.246467750 a.u.                6.7067 eV 
  ----------------------------------------------------------------------------
     Transition Moments                    Spin forbidden
     Oscillator Strength                   Spin forbidden

     Occ.   17  a   ---  Virt.   33  a       -0.05407
     Occ.   17  a   ---  Virt.   36  a        0.06764
     Occ.   20  a   ---  Virt.   28  a       -0.07391
     Occ.   22  a   ---  Virt.   33  a        0.19884
     Occ.   22  a   ---  Virt.   36  a       -0.23447
     Occ.   23  a   ---  Virt.   28  a        0.28815
     Occ.   25  a   ---  Virt.   33  a       -0.57285
     Occ.   25  a   ---  Virt.   36  a        0.65340
     Occ.   27  a   ---  Virt.   37  a        0.15589
  ----------------------------------------------------------------------------
  Root   8 triplet a              0.252208612 a.u.                6.8629 eV 
  ----------------------------------------------------------------------------
     Transition Moments                    Spin forbidden
     Oscillator Strength                   Spin forbidden

     Occ.   22  a   ---  Virt.   28  a       -0.29482
     Occ.   23  a   ---  Virt.   33  a        0.25526
     Occ.   23  a   ---  Virt.   36  a       -0.29945
     Occ.   25  a   ---  Virt.   28  a       -0.42597
     Occ.   27  a   ---  Virt.   31  a        0.05239
     Occ.   27  a   ---  Virt.   33  a       -0.52623
     Occ.   27  a   ---  Virt.   36  a        0.52654

              Target root =      1
          Target symmetry = none
      Ground state energy =   -324.294471085058
        Excitation energy =      0.140791659252
     Excited state energy =   -324.153679425806

  stored tddft:energy   -324.15367942580639     

 Task  times  cpu:     4523.4s     wall:     5441.0s


                                NWChem Input Module
                                -------------------


 Summary of allocated global arrays
-----------------------------------
  No active global arrays


MA_summarize_allocated_blocks: starting scan ...
heap block 'gridpts', handle 82, address 0x140b7bc0:
	type of elements:		double precision
	number of elements:		5242766384
	address of client space:	0x140b7c40
	index for client space:		13880031
	total number of bytes:		41942131208
MA_summarize_allocated_blocks: scan completed: 1 heap block, 0 stack blocks
MA usage statistics:

	allocation statistics:
					      heap	     stack
					      ----	     -----
	current number of blocks	         1	         0
	maximum number of blocks	        18	        53
	current total bytes		41942131208	         0
	maximum total bytes		41943721360	  43515288
	maximum total K-bytes		  41943722	     43516
	maximum total M-bytes		     41944	        44


                                     CITATION
                                     --------
                Please cite the following reference when publishing
                           results obtained with NWChem:

          E. Apra, E. J. Bylaska, W. A. de Jong, N. Govind, K. Kowalski,
       T. P. Straatsma, M. Valiev, H. J. J. van Dam, Y. Alexeev, J. Anchell,
       V. Anisimov, F. W. Aquino, R. Atta-Fynn, J. Autschbach, N. P. Bauman,
     J. C. Becca, D. E. Bernholdt, K. Bhaskaran-Nair, S. Bogatko, P. Borowski,
         J. Boschen, J. Brabec, A. Bruner, E. Cauet, Y. Chen, G. N. Chuev,
      C. J. Cramer, J. Daily, M. J. O. Deegan, T. H. Dunning Jr., M. Dupuis,
   K. G. Dyall, G. I. Fann, S. A. Fischer, A. Fonari, H. Fruchtl, L. Gagliardi,
      J. Garza, N. Gawande, S. Ghosh, K. Glaesemann, A. W. Gotz, J. Hammond,
       V. Helms, E. D. Hermes, K. Hirao, S. Hirata, M. Jacquelin, L. Jensen,
   B. G. Johnson, H. Jonsson, R. A. Kendall, M. Klemm, R. Kobayashi, V. Konkov,
      S. Krishnamoorthy, M. Krishnan, Z. Lin, R. D. Lins, R. J. Littlefield,
      A. J. Logsdail, K. Lopata, W. Ma, A. V. Marenich, J. Martin del Campo,
   D. Mejia-Rodriguez, J. E. Moore, J. M. Mullin, T. Nakajima, D. R. Nascimento,
    J. A. Nichols, P. J. Nichols, J. Nieplocha, A. Otero-de-la-Roza, B. Palmer,
    A. Panyala, T. Pirojsirikul, B. Peng, R. Peverati, J. Pittner, L. Pollack,
   R. M. Richard, P. Sadayappan, G. C. Schatz, W. A. Shelton, D. W. Silverstein,
   D. M. A. Smith, T. A. Soares, D. Song, M. Swart, H. L. Taylor, G. S. Thomas,
            V. Tipparaju, D. G. Truhlar, K. Tsemekhman, T. Van Voorhis,
      A. Vazquez-Mayagoitia, P. Verma, O. Villa, A. Vishnu, K. D. Vogiatzis,
        D. Wang, J. H. Weare, M. J. Williamson, T. L. Windus, K. Wolinski,
        A. T. Wong, Q. Wu, C. Yang, Q. Yu, M. Zacharias, Z. Zhang, Y. Zhao,
                                and R. J. Harrison
                        "NWChem: Past, present, and future
                         J. Chem. Phys. 152, 184102 (2020)
                               doi:10.1063/5.0004997

                                      AUTHORS
                                      -------
  E. Apra, E. J. Bylaska, N. Govind, K. Kowalski, M. Valiev, D. Mejia-Rodriguez,
       A. Kunitsa, N. P. Bauman, A. Panyala, W. A. de Jong, T. P. Straatsma,
   H. J. J. van Dam, D. Wang, T. L. Windus, J. Hammond, J. Autschbach, A. Woods,
    K. Bhaskaran-Nair, J. Brabec, K. Lopata, S. A. Fischer, S. Krishnamoorthy,
     M. Jacquelin, W. Ma, M. Klemm, O. Villa, Y. Chen, V. Anisimov, F. Aquino,
     S. Hirata, M. T. Hackler, E. Hermes, L. Jensen, J. E. Moore, J. C. Becca,
      V. Konjkov, T. Risthaus, M. Malagoli, A. Marenich, A. Otero-de-la-Roza,
        J. Mullin, P. Nichols, R. Peverati, J. Pittner, Y. Zhao, P.-D. Fan,
        A. Fonari, M. J. Williamson, R. J. Harrison, J. R. Rehr, M. Dupuis,
     D. Silverstein, D. M. A. Smith, J. Nieplocha, V. Tipparaju, M. Krishnan,
     B. E. Van Kuiken, A. Vazquez-Mayagoitia, M. Swart, Q. Wu, T. Van Voorhis,
     A. A. Auer, M. Nooijen, L. D. Crosby, E. Brown, G. Cisneros, G. I. Fann,
   H. Fruchtl, J. Garza, K. Hirao, R. A. Kendall, J. A. Nichols, K. Tsemekhman,
    K. Wolinski, J. Anchell, D. E. Bernholdt, P. Borowski, T. Clark, D. Clerc,
   H. Dachsel, M. J. O. Deegan, K. Dyall, D. Elwood, E. Glendening, M. Gutowski,
   A. C. Hess, J. Jaffe, B. G. Johnson, J. Ju, R. Kobayashi, R. Kutteh, Z. Lin,
   R. Littlefield, X. Long, B. Meng, T. Nakajima, S. Niu, L. Pollack, M. Rosing,
   K. Glaesemann, G. Sandrone, M. Stave, H. Taylor, G. Thomas, J. H. van Lenthe,
                               A. T. Wong, Z. Zhang.

 Total times  cpu:     4523.5s     wall:     5441.6s
