 argument  1 = /home/aditisingh4812/nw_chem/nwchem-run/nwchem-run/tddft/closed/lcwpbe/geom-MOL/benzonitrile.nw
                                         
                                         


             Northwest Computational Chemistry Package (NWChem) 7.2.3
             --------------------------------------------------------


                    Environmental Molecular Sciences Laboratory
                       Pacific Northwest National Laboratory
                                Richland, WA 99352

                              Copyright (c) 1994-2022
                       Pacific Northwest National Laboratory
                            Battelle Memorial Institute

             NWChem is an open-source computational chemistry package
                        distributed under the terms of the
                      Educational Community License (ECL) 2.0
             A copy of the license is included with this distribution
                              in the LICENSE.TXT file

                                  ACKNOWLEDGMENT
                                  --------------

            This software and its documentation were developed at the
            EMSL at Pacific Northwest National Laboratory, a multiprogram
            national laboratory, operated for the U.S. Department of Energy
            by Battelle under Contract Number DE-AC05-76RL01830. Support
            for this work was provided by the Department of Energy Office
            of Biological and Environmental Research, Office of Basic
            Energy Sciences, and the Office of Advanced Scientific Computing.


           Job information
           ---------------

    hostname        = p24
    program         = /home/aditisingh4812/nw_chem/nwchem-7.2.3-release.revision-d690e065-srconly.2024-08-27/nwchem-7.2.3/bin/LINUX64/nwchem
    date            = Thu May  8 18:51:51 2025

    compiled        = Mon_Apr_07_18:51:54_2025
    source          = /home/aditisingh4812/nw_chem/nwchem-7.2.3-release.revision-d690e065-srconly.2024-08-27/nwchem-7.2.3
    nwchem branch   = 7.2.3
    nwchem revision = d690e065
    ga revision     = 5.8.0
    use scalapack   = F
    input           = /home/aditisingh4812/nw_chem/nwchem-run/nwchem-run/tddft/closed/lcwpbe/geom-MOL/benzonitrile.nw
    prefix          = benzonitrile.
    data base       = ./benzonitrile.db
    status          = startup
    nproc           =       48
    time left       =     -1s



           Memory information
           ------------------

    heap     = ********** doubles = 200000.0 Mbytes
    stack    = ********** doubles = 200000.0 Mbytes
    global   = ********** doubles = 100000.0 Mbytes (distinct from heap & stack)
    total    = ********** doubles = 500000.0 Mbytes
    verify   = yes
    hardfail = no 


           Directory information
           ---------------------

  0 permanent = .
  0 scratch   = .




                                NWChem Input Module
                                -------------------



 Scaling coordinates for geometry "geometry" by  1.889725989
 (inverse scale =  0.529177249)



                             Geometry "geometry" -> ""
                             -------------------------

 Output coordinates in angstroms (scale by  1.889725989 to convert to a.u.)

  No.       Tag          Charge          X              Y              Z
 ---- ---------------- ---------- -------------- -------------- --------------
    1 C                    6.0000     0.00000000     0.00000000     2.03530194
    2 C                    6.0000     0.00000000     0.00000000     0.60494794
    3 C                    6.0000     1.21054800     0.00000000    -0.08993006
    4 C                    6.0000    -1.21054800     0.00000000    -0.08993006
    5 C                    6.0000     0.00000000     0.00000000    -2.17318706
    6 C                    6.0000     1.20683900     0.00000000    -1.47845906
    7 C                    6.0000    -1.20683900     0.00000000    -1.47845906
    8 N                    7.0000     0.00000000     0.00000000     3.19749094
    9 H                    1.0000     2.13750800     0.00000000     0.45867294
   10 H                    1.0000    -2.13750800     0.00000000     0.45867294
   11 H                    1.0000     2.14082100     0.00000000    -2.01539206
   12 H                    1.0000    -2.14082100     0.00000000    -2.01539206
   13 H                    1.0000     0.00000000     0.00000000    -3.25070606

      Atomic Mass 
      ----------- 

      C                 12.000000
      N                 14.003070
      H                  1.007825


 Effective nuclear repulsion energy (a.u.)     300.4148391350

            Nuclear Dipole moment (a.u.) 
            ----------------------------
        X                 Y               Z
 ---------------- ---------------- ----------------
     0.0000000000     0.0000000000     0.0000000000


            XYZ format geometry
            -------------------
    13
 geometry
 C                     0.00000000     0.00000000     2.03530194
 C                     0.00000000     0.00000000     0.60494794
 C                     1.21054800     0.00000000    -0.08993006
 C                    -1.21054800     0.00000000    -0.08993006
 C                     0.00000000     0.00000000    -2.17318706
 C                     1.20683900     0.00000000    -1.47845906
 C                    -1.20683900     0.00000000    -1.47845906
 N                     0.00000000     0.00000000     3.19749094
 H                     2.13750800     0.00000000     0.45867294
 H                    -2.13750800     0.00000000     0.45867294
 H                     2.14082100     0.00000000    -2.01539206
 H                    -2.14082100     0.00000000    -2.01539206
 H                     0.00000000     0.00000000    -3.25070606

 ==============================================================================
                                internuclear distances
 ------------------------------------------------------------------------------
       center one      |      center two      | atomic units |  angstroms
 ------------------------------------------------------------------------------
    2 C                |   1 C                |     2.70298  |     1.43035
    3 C                |   2 C                |     2.63770  |     1.39581
    4 C                |   2 C                |     2.63770  |     1.39581
    6 C                |   3 C                |     2.62395  |     1.38853
    6 C                |   5 C                |     2.63148  |     1.39252
    7 C                |   4 C                |     2.62395  |     1.38853
    7 C                |   5 C                |     2.63148  |     1.39252
    8 N                |   1 C                |     2.19622  |     1.16219
    9 H                |   3 C                |     2.03549  |     1.07714
   10 H                |   4 C                |     2.03549  |     1.07714
   11 H                |   6 C                |     2.03584  |     1.07732
   12 H                |   7 C                |     2.03584  |     1.07732
   13 H                |   5 C                |     2.03622  |     1.07752
 ------------------------------------------------------------------------------
                         number of included internuclear distances:         13
 ==============================================================================



 ==============================================================================
                                 internuclear angles
 ------------------------------------------------------------------------------
        center 1       |       center 2       |       center 3       |  degrees
 ------------------------------------------------------------------------------
    2 C                |   1 C                |   8 N                |   180.00
    1 C                |   2 C                |   3 C                |   119.86
    1 C                |   2 C                |   4 C                |   119.86
    3 C                |   2 C                |   4 C                |   120.29
    2 C                |   3 C                |   6 C                |   119.70
    2 C                |   3 C                |   9 H                |   119.53
    6 C                |   3 C                |   9 H                |   120.77
    2 C                |   4 C                |   7 C                |   119.70
    2 C                |   4 C                |  10 H                |   119.53
    7 C                |   4 C                |  10 H                |   120.77
    6 C                |   5 C                |   7 C                |   120.15
    6 C                |   5 C                |  13 H                |   119.93
    7 C                |   5 C                |  13 H                |   119.93
    3 C                |   6 C                |   5 C                |   120.08
    3 C                |   6 C                |  11 H                |   119.74
    5 C                |   6 C                |  11 H                |   120.18
    4 C                |   7 C                |   5 C                |   120.08
    4 C                |   7 C                |  12 H                |   119.74
    5 C                |   7 C                |  12 H                |   120.18
 ------------------------------------------------------------------------------
                            number of included internuclear angles:         19
 ==============================================================================





 Summary of "ao basis" -> "" (cartesian)
 ------------------------------------------------------------------------------
       Tag                 Description            Shells   Functions and Types
 ---------------- ------------------------------  ------  ---------------------
 *                         def2-TZVPD                 on all atoms 


  pbe96 is a nonlocal functional; adding pw91lda local functional. 

                                 NWChem DFT Module
                                 -----------------


                      Basis "ao basis" -> "ao basis" (cartesian)
                      -----
  C (Carbon)
  ----------
            Exponent  Coefficients 
       -------------- ---------------------------------------------------------
  1 S  1.35753497E+04  0.000222
  1 S  2.03523337E+03  0.001723
  1 S  4.63225624E+02  0.008926
  1 S  1.31200196E+02  0.035728
  1 S  4.28530159E+01  0.110763
  1 S  1.55841858E+01  0.242956

  2 S  6.20671385E+00  0.414403
  2 S  2.57648965E+00  0.237450

  3 S  5.76963394E-01  1.000000

  4 S  2.29728314E-01  1.000000

  5 S  9.51644400E-02  1.000000

  6 S  4.84754014E-02  1.000000

  7 P  3.46972322E+01  0.005333
  7 P  7.95826228E+00  0.035864
  7 P  2.37808269E+00  0.142159
  7 P  8.14332082E-01  0.342705

  8 P  2.88875473E-01  1.000000

  9 P  1.00568237E-01  1.000000

 10 D  1.09700000E+00  1.000000

 11 D  3.18000000E-01  1.000000

 12 D  9.09853364E-02  1.000000

 13 F  7.61000000E-01  1.000000

  N (Nitrogen)
  ------------
            Exponent  Coefficients 
       -------------- ---------------------------------------------------------
  1 S  1.97308006E+04  0.000219
  1 S  2.95789587E+03  0.001696
  1 S  6.73221336E+02  0.008795
  1 S  1.90682495E+02  0.035359
  1 S  6.22954419E+01  0.110958
  1 S  2.26541612E+01  0.249830

  2 S  8.97914774E+00  0.406239
  2 S  3.68630024E+00  0.243382

  3 S  8.46600768E-01  1.000000

  4 S  3.36471338E-01  1.000000

  5 S  1.36476537E-01  1.000000

  6 S  6.84416058E-02  1.000000

  7 P  4.92003805E+01  0.005555
  7 P  1.13467905E+01  0.038052
  7 P  3.42739724E+00  0.149537
  7 P  1.17855251E+00  0.349493

  8 P  4.16422050E-01  1.000000

  9 P  1.42608260E-01  1.000000

 10 D  1.65400000E+00  1.000000

 11 D  4.69000000E-01  1.000000

 12 D  1.28296421E-01  1.000000

 13 F  1.09300000E+00  1.000000

  H (Hydrogen)
  ------------
            Exponent  Coefficients 
       -------------- ---------------------------------------------------------
  1 S  3.40613410E+01  0.006025
  1 S  5.12357460E+00  0.045021
  1 S  1.16466260E+00  0.201897

  2 S  3.27230410E-01  1.000000

  3 S  1.03072410E-01  1.000000

  4 P  8.00000000E-01  1.000000

  5 P  9.57741296E-02  1.000000



 Summary of "ao basis" -> "ao basis" (cartesian)
 ------------------------------------------------------------------------------
       Tag                 Description            Shells   Functions and Types
 ---------------- ------------------------------  ------  ---------------------
 C                         def2-TZVPD               13       43   6s3p3d1f
 N                         def2-TZVPD               13       43   6s3p3d1f
 H                         def2-TZVPD                5        9   3s2p




 Summary of "ao basis" -> "ao basis" (cartesian)
 ------------------------------------------------------------------------------
       Tag                 Description            Shells   Functions and Types
 ---------------- ------------------------------  ------  ---------------------
 C                         def2-TZVPD               13       43   6s3p3d1f
 N                         def2-TZVPD               13       43   6s3p3d1f
 H                         def2-TZVPD                5        9   3s2p


  int_init: cando_txs set to always be  F
  Caching 1-el integrals 

            General Information
            -------------------
          SCF calculation type: DFT
          Wavefunction type:  closed shell.
          No. of atoms     :    13
          No. of electrons :    54
           Alpha electrons :    27
            Beta electrons :    27
          Charge           :     0
          Spin multiplicity:     1
          Use of symmetry is: off; symmetry adaption is: off
          Maximum number of iterations:  50
          AO basis - number of functions:   389
                     number of shells:   129
          Convergence on energy requested:  1.00D-06
          Convergence on density requested:  1.00D-05
          Convergence on gradient requested:  5.00D-04

              XC Information
              --------------
                     Hartree-Fock (Exact) Exchange  1.000          
                     LC-wPBE(h)Exchange Functional  1.000          
            Perdew 1991 LDA Correlation Functional  1.000 local    
           PerdewBurkeErnz. Correlation Functional  1.000 non-local

           Range-Separation Parameters        
           ---------------------------
           Alpha           :  0.00
           Beta            :  1.00
           Gamma           :  0.28
           Short-Range HF  :     F

             Grid Information
             ----------------
          Grid used for XC integration:  xfine     
          Radial quadrature: Mura-Knowles        
          Angular quadrature: Lebedev. 
          Tag              B.-S. Rad. Rad. Pts. Rad. Cut. Ang. Pts.
          ---              ---------- --------- --------- ---------
          C                   0.70      100          15.0      1454
          N                   0.65      100          16.0      1454
          H                   0.35      100          16.0      1202
          Grid pruning is: on 
          Number of quadrature shells:  1300
          Spatial weights used:  Erf1

          Convergence Information
          -----------------------
          Convergence aids based upon iterative change in 
          total energy or number of iterations. 
          Levelshifting, if invoked, occurs when the 
          HOMO/LUMO gap drops below (HL_TOL):  1.00D-02
          DIIS, if invoked, will attempt to extrapolate 
          using up to (NFOCK): 10 stored Fock matrices.

                    Damping( 0%)  Levelshifting(0.5)       DIIS
                  --------------- ------------------- ---------------
          dE  on:    start            ASAP                start   
          dE off:    2 iters         50 iters            50 iters 


      Screening Tolerance Information
      -------------------------------
          Density screening/tol_rho:  1.00D-10
          AO Gaussian exp screening on grid/accAOfunc:  14
          CD Gaussian exp screening on grid/accCDfunc:  20
          XC Gaussian exp screening on grid/accXCfunc:  20
          Schwarz screening/accCoul:  1.00D-08

  
  CAM type calculations without CDFIT are
  only available with the direct option.
  Forcing Direct SCF
  

 WARNING : Found    11 linear dependencies 
 S eigenvalue threshold:     1.00000E-05
 Smallest S eigenvalue :     3.49473E-08
 Largest  S eigenvalue :     6.90985E-06


 !! The overlap matrix has  11 vectors deemed linearly dependent with
    eigenvalues:
 3.49D-08 4.65D-07 8.95D-07 1.35D-06 1.65D-06 2.00D-06 2.08D-06 2.87D-06
 5.22D-06 6.05D-06 6.91D-06


      Superposition of Atomic Density Guess
      -------------------------------------

 Sum of atomic energies:        -320.50991748

      Non-variational initial energy
      ------------------------------

 Total energy =    -325.806625
 1-e energy   =   -1025.167886
 2-e energy   =     398.946422
 HOMO         =      -0.311660
 LUMO         =      -0.057063

  WARNING: movecs_in_org=atomic not equal to movecs_in=./benzonitrile.movecs
   Time after variat. SCF:      9.4
   Time prior to 1st pass:      9.4

 Grid_pts file          = ./benzonitrile.gridpts.00
 Record size in doubles =  12289        No. of grid_pts per rec  =   3070
 Max. records in memory =     16        Max. recs in file   =  21109390

 Grid integrated density:      53.993964786613
 Requested integration accuracy:   0.10E-07

           Memory utilization after 1st SCF pass: 
           Heap Space remaining (MW):    15728.55         15728554622
          Stack Space remaining (MW):    26214.40         26214397724

   convergence    iter        energy       DeltaE   RMS-Dens  Diis-err    time
 ---------------- ----- ----------------- --------- --------- ---------  ------
 d= 0,ls=0.0,diis     1   -322.9737535519 -6.23D+02  2.65D+02  6.89D+03    39.8
 Grid integrated density:      53.999990786249
 Requested integration accuracy:   0.10E-07
 d= 0,ls=0.0,diis     2   -306.8817052183  1.61D+01  1.87D+02  1.14D+02    67.9
 Grid integrated density:      54.000007108716
 Requested integration accuracy:   0.10E-07
 d= 0,ls=0.0,diis     3   -312.0045583859 -5.12D+00  3.38D+01  6.55D+01    95.3
 Grid integrated density:      54.000008150338
 Requested integration accuracy:   0.10E-07
 d= 0,ls=0.0,diis     4   -296.1620122860  1.58D+01  1.79D+02  7.49D+01   122.7
 Grid integrated density:      54.000000624708
 Requested integration accuracy:   0.10E-07
 d= 0,ls=0.0,diis     5   -311.0212700516 -1.49D+01  5.88D-02  5.66D+01   154.6
 Grid integrated density:      54.000000722228
 Requested integration accuracy:   0.10E-07
 d= 0,ls=0.0,diis     6   -323.1636470905 -1.21D+01  7.14D-02  9.74D+00   178.7
 Grid integrated density:      54.000000934733
 Requested integration accuracy:   0.10E-07
 d= 0,ls=0.0,diis     7   -323.9010217921 -7.37D-01  8.52D-03  3.76D+00   206.8
 Grid integrated density:      54.000001149693
 Requested integration accuracy:   0.10E-07
 d= 0,ls=0.0,diis     8   -324.2157702855 -3.15D-01  2.80D-03  5.21D-01   231.6
 Grid integrated density:      54.000001114106
 Requested integration accuracy:   0.10E-07
 d= 0,ls=0.0,diis     9   -324.2794419977 -6.37D-02  1.35D-03  1.14D-01   259.8
 Grid integrated density:      54.000001083772
 Requested integration accuracy:   0.10E-07
  Resetting Diis
 d= 0,ls=0.0,diis    10   -324.2967985848 -1.74D-02  3.76D-04  1.47D-02   285.4
 d= 0,ls=0.0,diis    11   -324.2985104658 -1.71D-03  1.29D-03  3.18D-03   312.3
 d= 0,ls=0.0,diis    12   -324.2984403919  7.01D-05  1.23D-04  4.52D-03   344.5
 d= 0,ls=0.0,diis    13   -324.2988888200 -4.48D-04  6.18D-05  2.55D-04   369.8
 d= 0,ls=0.0,diis    14   -324.2989167389 -2.79D-05  5.38D-05  1.40D-05   396.3
 d= 0,ls=0.0,diis    15   -324.2989199960 -3.26D-06  1.98D-05  3.94D-06   421.3
 d= 0,ls=0.0,diis    16   -324.2989210009 -1.00D-06  7.06D-06  1.88D-07   446.4
 d= 0,ls=0.0,diis    17   -324.2989210764 -7.55D-08  3.55D-06  6.16D-08   473.0


         Total DFT energy =     -324.298921076360
      One electron energy =    -1031.200148636731
           Coulomb energy =      452.880640651190
    Exchange-Corr. energy =      -46.394252225837
 Nuclear repulsion energy =      300.414839135018

 Numeric. integr. density =       54.000000084415

     Total iterative time =    463.6s



                       DFT Final Molecular Orbital Analysis
                       ------------------------------------

 Vector    1  Occ=2.000000D+00  E=-1.414592D+01
              MO Center=  3.1D-10, -3.4D-11,  3.2D+00, r^2= 2.0D-02
   Bfn.  Coefficient  Atom+Function         Bfn.  Coefficient  Atom+Function  
  ----- ------------  ---------------      ----- ------------  ---------------
   303      0.619327   8 N  s               302      0.449378   8 N  s         
   305     -0.114906   8 N  s               304      0.097332   8 N  s         

 Vector    2  Occ=2.000000D+00  E=-1.010371D+01
              MO Center=  1.2D-07, -9.2D-13,  6.1D-01, r^2= 2.8D-02
   Bfn.  Coefficient  Atom+Function         Bfn.  Coefficient  Atom+Function  
  ----- ------------  ---------------      ----- ------------  ---------------
    45      0.599372   2 C  s                44      0.468048   2 C  s         
    46      0.102142   2 C  s                47     -0.101538   2 C  s         

 Vector    3  Occ=2.000000D+00  E=-1.008672D+01
              MO Center=  2.6D-09, -6.7D-13,  2.0D+00, r^2= 2.8D-02
   Bfn.  Coefficient  Atom+Function         Bfn.  Coefficient  Atom+Function  
  ----- ------------  ---------------      ----- ------------  ---------------
     2      0.599072   1 C  s                 1      0.467885   1 C  s         
     4     -0.132996   1 C  s                 3      0.106273   1 C  s         
    25      0.025202   1 C  dyy              22      0.025050   1 C  dxx       

 Vector    4  Occ=2.000000D+00  E=-1.008091D+01
              MO Center=  1.0D+00,  1.0D-12, -9.2D-02, r^2= 4.5D-01
   Bfn.  Coefficient  Atom+Function         Bfn.  Coefficient  Atom+Function  
  ----- ------------  ---------------      ----- ------------  ---------------
    88      0.575635   3 C  s                87      0.449482   3 C  s         
   131     -0.165772   4 C  s               130     -0.129439   4 C  s         
    89      0.098724   3 C  s                90     -0.097874   3 C  s         
   132     -0.028366   4 C  s               133      0.027636   4 C  s         

 Vector    5  Occ=2.000000D+00  E=-1.008089D+01
              MO Center= -1.0D+00, -4.5D-13, -9.2D-02, r^2= 4.4D-01
   Bfn.  Coefficient  Atom+Function         Bfn.  Coefficient  Atom+Function  
  ----- ------------  ---------------      ----- ------------  ---------------
   131      0.575633   4 C  s               130      0.449483   4 C  s         
    88      0.165770   3 C  s                87      0.129445   3 C  s         
   132      0.098765   4 C  s               133     -0.098220   4 C  s         
    90     -0.028835   3 C  s                89      0.028507   3 C  s         

 Vector    6  Occ=2.000000D+00  E=-1.007682D+01
              MO Center=  1.0D-04, -2.6D-14, -2.2D+00, r^2= 7.0D-02
   Bfn.  Coefficient  Atom+Function         Bfn.  Coefficient  Atom+Function  
  ----- ------------  ---------------      ----- ------------  ---------------
   174      0.592861   5 C  s               173      0.462929   5 C  s         
   175      0.101837   5 C  s               176     -0.101381   5 C  s         
   217      0.062665   6 C  s               260      0.062421   7 C  s         
   216      0.048922   6 C  s               259      0.048731   7 C  s         

 Vector    7  Occ=2.000000D+00  E=-1.007483D+01
              MO Center=  2.0D-01, -1.7D-12, -1.5D+00, r^2= 1.4D+00
   Bfn.  Coefficient  Atom+Function         Bfn.  Coefficient  Atom+Function  
  ----- ------------  ---------------      ----- ------------  ---------------
   217      0.456891   6 C  s               260     -0.387339   7 C  s         
   216      0.356765   6 C  s               259     -0.302454   7 C  s         
   218      0.078528   6 C  s               219     -0.078031   6 C  s         
   261     -0.066587   7 C  s               262      0.066171   7 C  s         

 Vector    8  Occ=2.000000D+00  E=-1.007478D+01
              MO Center= -2.0D-01, -2.8D-13, -1.5D+00, r^2= 1.4D+00
   Bfn.  Coefficient  Atom+Function         Bfn.  Coefficient  Atom+Function  
  ----- ------------  ---------------      ----- ------------  ---------------
   260      0.452696   7 C  s               217      0.382344   6 C  s         
   259      0.353497   7 C  s               216      0.298563   6 C  s         
   174     -0.088336   5 C  s               261      0.077731   7 C  s         
   262     -0.077215   7 C  s               173     -0.068992   5 C  s         
   218      0.065638   6 C  s               219     -0.065197   6 C  s         

 Vector    9  Occ=2.000000D+00  E=-9.953778D-01
              MO Center=  1.3D-05,  1.8D-10,  1.5D+00, r^2= 3.1D+00
   Bfn.  Coefficient  Atom+Function         Bfn.  Coefficient  Atom+Function  
  ----- ------------  ---------------      ----- ------------  ---------------
     4      0.252416   1 C  s               304      0.230916   8 N  s         
     3      0.227698   1 C  s                46      0.150633   2 C  s         
    33     -0.143761   1 C  dzz               2     -0.134440   1 C  s         
   303     -0.134879   8 N  s                76     -0.117515   2 C  dzz       
   310     -0.114421   8 N  pz               89      0.093096   3 C  s         

 Vector   10  Occ=2.000000D+00  E=-9.707900D-01
              MO Center=  2.9D-05,  2.0D-10,  5.3D-01, r^2= 4.6D+00
   Bfn.  Coefficient  Atom+Function         Bfn.  Coefficient  Atom+Function  
  ----- ------------  ---------------      ----- ------------  ---------------
     4      0.259705   1 C  s               304      0.207126   8 N  s         
    47     -0.202639   2 C  s                 3      0.136210   1 C  s         
     9      0.134506   1 C  pz              303     -0.120897   8 N  s         
   175     -0.119746   5 C  s               218     -0.116180   6 C  s         
   261     -0.116173   7 C  s                89     -0.114223   3 C  s         

 Vector   11  Occ=2.000000D+00  E=-8.810305D-01
              MO Center=  1.5D-05,  7.9D-11, -4.8D-01, r^2= 3.6D+00
   Bfn.  Coefficient  Atom+Function         Bfn.  Coefficient  Atom+Function  
  ----- ------------  ---------------      ----- ------------  ---------------
    47      0.273262   2 C  s                46      0.207146   2 C  s         
   175     -0.195818   5 C  s               176     -0.188839   5 C  s         
     9     -0.134473   1 C  pz               45     -0.127235   2 C  s         
   174      0.122727   5 C  s               218     -0.120243   6 C  s         
   261     -0.120237   7 C  s               219     -0.100588   6 C  s         

 Vector   12  Occ=2.000000D+00  E=-8.671642D-01
              MO Center= -1.6D-05,  2.6D-10, -7.3D-01, r^2= 2.9D+00
   Bfn.  Coefficient  Atom+Function         Bfn.  Coefficient  Atom+Function  
  ----- ------------  ---------------      ----- ------------  ---------------
    89      0.186097   3 C  s               132     -0.186097   4 C  s         
    90      0.178000   3 C  s               133     -0.177999   4 C  s         
   218      0.175784   6 C  s               261     -0.175789   7 C  s         
   219      0.166748   6 C  s               262     -0.166752   7 C  s         
    88     -0.114372   3 C  s               131      0.114373   4 C  s         

 Vector   13  Occ=2.000000D+00  E=-7.503540D-01
              MO Center= -1.3D-06, -3.0D-11, -4.6D-01, r^2= 4.0D+00
   Bfn.  Coefficient  Atom+Function         Bfn.  Coefficient  Atom+Function  
  ----- ------------  ---------------      ----- ------------  ---------------
   176      0.203996   5 C  s               175      0.184441   5 C  s         
     9     -0.155288   1 C  pz               47      0.153021   2 C  s         
    90     -0.140536   3 C  s               133     -0.140534   4 C  s         
    52      0.137070   2 C  pz               46      0.121612   2 C  s         
    89     -0.122149   3 C  s               132     -0.122150   4 C  s         

 Vector   14  Occ=2.000000D+00  E=-7.283282D-01
              MO Center=  3.9D-06,  8.1D-11, -7.1D-01, r^2= 3.7D+00
   Bfn.  Coefficient  Atom+Function         Bfn.  Coefficient  Atom+Function  
  ----- ------------  ---------------      ----- ------------  ---------------
   219     -0.180331   6 C  s               262      0.180328   7 C  s         
    90      0.173068   3 C  s               133     -0.173072   4 C  s         
    50      0.169499   2 C  px              218     -0.156999   6 C  s         
   261      0.156996   7 C  s               179     -0.150029   5 C  px        
    89      0.141776   3 C  s               132     -0.141778   4 C  s         

 Vector   15  Occ=2.000000D+00  E=-6.669621D-01
              MO Center=  2.6D-05, -2.3D-10, -4.8D-01, r^2= 4.0D+00
   Bfn.  Coefficient  Atom+Function         Bfn.  Coefficient  Atom+Function  
  ----- ------------  ---------------      ----- ------------  ---------------
    52      0.189270   2 C  pz               93      0.152433   3 C  px        
   136     -0.152426   4 C  px                4      0.143688   1 C  s         
   222      0.136044   6 C  px              265     -0.136038   7 C  px        
    12     -0.123859   1 C  pz              365     -0.117729  11 H  s         
   374     -0.117730  12 H  s               177      0.116934   5 C  s         

 Vector   16  Occ=2.000000D+00  E=-6.019227D-01
              MO Center=  1.5D-05,  2.6D-11, -8.9D-01, r^2= 4.9D+00
   Bfn.  Coefficient  Atom+Function         Bfn.  Coefficient  Atom+Function  
  ----- ------------  ---------------      ----- ------------  ---------------
   181      0.194736   5 C  pz              382     -0.162240  13 H  s         
   176     -0.128835   5 C  s               219      0.123673   6 C  s         
   262      0.123676   7 C  s               381     -0.122148  13 H  s         
    52      0.118564   2 C  pz               95     -0.115748   3 C  pz        
   138     -0.115739   4 C  pz                3      0.111551   1 C  s         

 Vector   17  Occ=2.000000D+00  E=-5.770159D-01
              MO Center=  9.4D-06,  7.4D-12, -6.7D-01, r^2= 3.1D+00
   Bfn.  Coefficient  Atom+Function         Bfn.  Coefficient  Atom+Function  
  ----- ------------  ---------------      ----- ------------  ---------------
    50      0.206567   2 C  px              179      0.202939   5 C  px        
   224     -0.183832   6 C  pz              267      0.183824   7 C  pz        
    95      0.169306   3 C  pz              138     -0.169305   4 C  pz        
    73     -0.153796   2 C  dxz              53      0.122984   2 C  px        
   182      0.116223   5 C  px               93     -0.107602   3 C  px        

 Vector   18  Occ=2.000000D+00  E=-5.524938D-01
              MO Center=  2.5D-05,  6.7D-11, -9.1D-01, r^2= 4.3D+00
   Bfn.  Coefficient  Atom+Function         Bfn.  Coefficient  Atom+Function  
  ----- ------------  ---------------      ----- ------------  ---------------
    47      0.160304   2 C  s               222      0.158134   6 C  px        
   265     -0.158124   7 C  px              181     -0.148390   5 C  pz        
    52     -0.144859   2 C  pz               93     -0.140762   3 C  px        
   136      0.140758   4 C  px              187     -0.135444   5 C  pz        
   364      0.129883  11 H  s               373      0.129881  12 H  s         

 Vector   19  Occ=2.000000D+00  E=-5.385836D-01
              MO Center= -9.5D-06, -1.5D-12, -7.4D-01, r^2= 3.9D+00
   Bfn.  Coefficient  Atom+Function         Bfn.  Coefficient  Atom+Function  
  ----- ------------  ---------------      ----- ------------  ---------------
    93      0.161367   3 C  px              136      0.161374   4 C  px        
   222      0.152774   6 C  px              265      0.152777   7 C  px        
   346      0.126290   9 H  s               355     -0.126293  10 H  s         
   364      0.123767  11 H  s               373     -0.123765  12 H  s         
    95      0.122952   3 C  pz              138     -0.122947   4 C  pz        

 Vector   20  Occ=2.000000D+00  E=-5.189127D-01
              MO Center=  2.4D-05,  4.8D-10,  9.1D-02, r^2= 3.4D+00
   Bfn.  Coefficient  Atom+Function         Bfn.  Coefficient  Atom+Function  
  ----- ------------  ---------------      ----- ------------  ---------------
    51      0.206424   2 C  py               54      0.170249   2 C  py        
    94      0.152375   3 C  py              137      0.152368   4 C  py        
     8      0.147670   1 C  py               97      0.131473   3 C  py        
   140      0.131467   4 C  py              223      0.122524   6 C  py        
    11      0.121914   1 C  py              266      0.122519   7 C  py        

 Vector   21  Occ=2.000000D+00  E=-4.746327D-01
              MO Center= -3.2D-05,  9.9D-11, -4.3D-01, r^2= 6.9D+00
   Bfn.  Coefficient  Atom+Function         Bfn.  Coefficient  Atom+Function  
  ----- ------------  ---------------      ----- ------------  ---------------
     4      0.207592   1 C  s               305     -0.208112   8 N  s         
   181     -0.206062   5 C  pz              224      0.171823   6 C  pz        
   267      0.171829   7 C  pz               95     -0.166731   3 C  pz        
   138     -0.166738   4 C  pz              382      0.167309  13 H  s         
   310     -0.158853   8 N  pz              187     -0.142292   5 C  pz        

 Vector   22  Occ=2.000000D+00  E=-4.645794D-01
              MO Center= -5.5D-05,  1.1D-10, -3.5D-01, r^2= 5.4D+00
   Bfn.  Coefficient  Atom+Function         Bfn.  Coefficient  Atom+Function  
  ----- ------------  ---------------      ----- ------------  ---------------
   179      0.207028   5 C  px              222     -0.175542   6 C  px        
   265     -0.175549   7 C  px               50     -0.144538   2 C  px        
     7     -0.140560   1 C  px               93      0.137827   3 C  px        
   136      0.137834   4 C  px              308     -0.127025   8 N  px        
   185      0.123236   5 C  px              346      0.118982   9 H  s         

 Vector   23  Occ=2.000000D+00  E=-4.532866D-01
              MO Center=  1.2D-05,  7.7D-09,  1.0D+00, r^2= 5.6D+00
   Bfn.  Coefficient  Atom+Function         Bfn.  Coefficient  Atom+Function  
  ----- ------------  ---------------      ----- ------------  ---------------
   309      0.252323   8 N  py                8      0.250422   1 C  py        
    11      0.201547   1 C  py              312      0.202147   8 N  py        
   180     -0.158255   5 C  py              183     -0.137535   5 C  py        
   223     -0.125954   6 C  py              266     -0.125948   7 C  py        
   226     -0.111247   6 C  py              269     -0.111242   7 C  py        

 Vector   24  Occ=2.000000D+00  E=-4.499359D-01
              MO Center= -5.7D-06, -7.8D-09,  2.4D+00, r^2= 4.7D+00
   Bfn.  Coefficient  Atom+Function         Bfn.  Coefficient  Atom+Function  
  ----- ------------  ---------------      ----- ------------  ---------------
   305      0.403554   8 N  s               310      0.339065   8 N  pz        
     4     -0.299829   1 C  s               306      0.245597   8 N  s         
     9     -0.219496   1 C  pz               12     -0.189064   1 C  pz        
   304      0.165784   8 N  s               307      0.163954   8 N  s         
    47      0.131457   2 C  s                55      0.130518   2 C  pz        

 Vector   25  Occ=2.000000D+00  E=-4.293876D-01
              MO Center= -1.3D-05,  9.1D-11,  2.0D+00, r^2= 3.5D+00
   Bfn.  Coefficient  Atom+Function         Bfn.  Coefficient  Atom+Function  
  ----- ------------  ---------------      ----- ------------  ---------------
   308      0.304232   8 N  px                7      0.258463   1 C  px        
   311      0.243630   8 N  px               10      0.214930   1 C  px        
   314      0.134259   8 N  px               50     -0.132387   2 C  px        
    73      0.126278   2 C  dxz              93      0.096265   3 C  px        
   136      0.096267   4 C  px               53     -0.083405   2 C  px        

 Vector   26  Occ=2.000000D+00  E=-3.727921D-01
              MO Center= -4.1D-05, -3.0D-10, -7.7D-01, r^2= 3.0D+00
   Bfn.  Coefficient  Atom+Function         Bfn.  Coefficient  Atom+Function  
  ----- ------------  ---------------      ----- ------------  ---------------
    94      0.218921   3 C  py              137     -0.218922   4 C  py        
   223      0.213517   6 C  py              266     -0.213528   7 C  py        
    97      0.189307   3 C  py              140     -0.189308   4 C  py        
   226      0.187540   6 C  py              269     -0.187551   7 C  py        
   100      0.131480   3 C  py              143     -0.131482   4 C  py        

 Vector   27  Occ=2.000000D+00  E=-3.605586D-01
              MO Center=  1.2D-05, -8.4D-10,  6.3D-02, r^2= 5.0D+00
   Bfn.  Coefficient  Atom+Function         Bfn.  Coefficient  Atom+Function  
  ----- ------------  ---------------      ----- ------------  ---------------
    51      0.227908   2 C  py              180     -0.219454   5 C  py        
   309     -0.198288   8 N  py               54      0.193985   2 C  py        
   183     -0.192731   5 C  py              312     -0.161535   8 N  py        
    57      0.131243   2 C  py               94      0.119477   3 C  py        
   137      0.119482   4 C  py              186     -0.110889   5 C  py        

 Vector   28  Occ=0.000000D+00  E= 3.737448D-03
              MO Center=  1.6D-05, -8.5D-12, -6.1D-02, r^2= 5.3D+00
   Bfn.  Coefficient  Atom+Function         Bfn.  Coefficient  Atom+Function  
  ----- ------------  ---------------      ----- ------------  ---------------
   183      0.235155   5 C  py              180      0.229793   5 C  py        
    51      0.218724   2 C  py               54      0.212640   2 C  py        
    32     -0.186579   1 C  dyz             309     -0.177010   8 N  py        
   312     -0.169391   8 N  py               94     -0.152808   3 C  py        
   137     -0.152796   4 C  py               97     -0.146931   3 C  py        

 Vector   29  Occ=0.000000D+00  E= 2.993552D-02
              MO Center=  3.6D-06,  2.0D-10, -7.9D-01, r^2= 4.1D+00
   Bfn.  Coefficient  Atom+Function         Bfn.  Coefficient  Atom+Function  
  ----- ------------  ---------------      ----- ------------  ---------------
   226     -0.228182   6 C  py              269      0.228174   7 C  py        
   223     -0.223168   6 C  py              266      0.223160   7 C  py        
    94      0.219895   3 C  py               97      0.220468   3 C  py        
   137     -0.219898   4 C  py              140     -0.220470   4 C  py        
   118      0.129079   3 C  dyz             161     -0.129082   4 C  dyz       

 Vector   30  Occ=0.000000D+00  E= 4.630127D-02
              MO Center=  1.2D-04, -2.5D-09, -1.4D+00, r^2= 1.6D+01
   Bfn.  Coefficient  Atom+Function         Bfn.  Coefficient  Atom+Function  
  ----- ------------  ---------------      ----- ------------  ---------------
    49      7.102772   2 C  s                 6     -5.172211   1 C  s         
    92     -2.657069   3 C  s               135     -2.656909   4 C  s         
   221     -2.572408   6 C  s               264     -2.572221   7 C  s         
   307      1.623119   8 N  s               178     -1.554889   5 C  s         
   383      1.513540  13 H  s                33      1.456285   1 C  dzz       

 Vector   31  Occ=0.000000D+00  E= 6.734632D-02
              MO Center= -2.1D-05,  2.3D-09, -1.4D+00, r^2= 1.8D+01
   Bfn.  Coefficient  Atom+Function         Bfn.  Coefficient  Atom+Function  
  ----- ------------  ---------------      ----- ------------  ---------------
   221      5.096482   6 C  s               264     -5.096545   7 C  s         
    92      2.424028   3 C  s               135     -2.423525   4 C  s         
   243     -1.445430   6 C  dxx             286      1.445455   7 C  dxx       
   114     -1.184249   3 C  dxx             157      1.184128   4 C  dxx       
    56     -1.171246   2 C  px              245      1.118265   6 C  dxz       

 Vector   32  Occ=0.000000D+00  E= 7.004341D-02
              MO Center=  8.7D-07,  8.1D-10, -9.2D-01, r^2= 2.0D+01
   Bfn.  Coefficient  Atom+Function         Bfn.  Coefficient  Atom+Function  
  ----- ------------  ---------------      ----- ------------  ---------------
    49      6.390963   2 C  s               178      6.299245   5 C  s         
     6     -5.730978   1 C  s                92     -5.109537   3 C  s         
   135     -5.109565   4 C  s                33      4.177812   1 C  dzz       
   365     -2.615030  11 H  s               374     -2.615133  12 H  s         
   205     -2.204409   5 C  dzz              76      1.870987   2 C  dzz       

 Vector   33  Occ=0.000000D+00  E= 9.337892D-02
              MO Center= -2.0D-05, -6.2D-11,  2.8D-01, r^2= 1.6D+01
   Bfn.  Coefficient  Atom+Function         Bfn.  Coefficient  Atom+Function  
  ----- ------------  ---------------      ----- ------------  ---------------
    92      8.175261   3 C  s               135     -8.175274   4 C  s         
   221     -6.466209   6 C  s               264      6.465864   7 C  s         
    56     -2.361871   2 C  px               73     -1.941080   2 C  dxz       
   114     -1.752832   3 C  dxx             157      1.752903   4 C  dxx       
   117     -1.327764   3 C  dyy             160      1.327779   4 C  dyy       

 Vector   34  Occ=0.000000D+00  E= 9.587117D-02
              MO Center= -3.2D-05, -4.2D-09, -5.4D-01, r^2= 2.1D+01
   Bfn.  Coefficient  Atom+Function         Bfn.  Coefficient  Atom+Function  
  ----- ------------  ---------------      ----- ------------  ---------------
   178     11.155071   5 C  s               221     -6.915306   6 C  s         
   264     -6.915585   7 C  s                49      5.324767   2 C  s         
    33     -4.868765   1 C  dzz              76     -3.902115   2 C  dzz       
     6      3.405512   1 C  s               365      3.171156  11 H  s         
   374      3.171027  12 H  s               383      2.154422  13 H  s         

 Vector   35  Occ=0.000000D+00  E= 1.052916D-01
              MO Center=  2.2D-05, -3.8D-11, -5.5D-01, r^2= 1.4D+01
   Bfn.  Coefficient  Atom+Function         Bfn.  Coefficient  Atom+Function  
  ----- ------------  ---------------      ----- ------------  ---------------
    49     15.201250   2 C  s               383      7.414294  13 H  s         
     6     -6.773431   1 C  s               177     -5.758703   5 C  s         
   221      4.346249   6 C  s               264      4.346147   7 C  s         
   220     -4.223270   6 C  s               263     -4.223170   7 C  s         
   365      4.094079  11 H  s               374      4.093915  12 H  s         

 Vector   36  Occ=0.000000D+00  E= 1.096306D-01
              MO Center= -4.9D-06,  5.2D-10,  1.3D+00, r^2= 1.1D+01
   Bfn.  Coefficient  Atom+Function         Bfn.  Coefficient  Atom+Function  
  ----- ------------  ---------------      ----- ------------  ---------------
    92      6.318613   3 C  s               135     -6.318618   4 C  s         
   221     -5.813338   6 C  s               264      5.813324   7 C  s         
   114     -1.415995   3 C  dxx             157      1.415995   4 C  dxx       
    73     -1.347986   2 C  dxz              56     -1.336099   2 C  px        
   116     -1.183924   3 C  dxz             159     -1.183906   4 C  dxz       

 Vector   37  Occ=0.000000D+00  E= 1.359881D-01
              MO Center= -2.5D-05, -1.7D-08,  2.6D-01, r^2= 2.4D+01
   Bfn.  Coefficient  Atom+Function         Bfn.  Coefficient  Atom+Function  
  ----- ------------  ---------------      ----- ------------  ---------------
    92     11.728938   3 C  s               135     11.729224   4 C  s         
   221    -11.700108   6 C  s               264    -11.700309   7 C  s         
   178     11.370226   5 C  s                49     -7.434502   2 C  s         
    33      6.514389   1 C  dzz             347     -6.468018   9 H  s         
   356     -6.467876  10 H  s                 6     -5.280721   1 C  s         

 Vector   38  Occ=0.000000D+00  E= 1.370578D-01
              MO Center=  1.7D-06,  1.1D-08,  5.4D-01, r^2= 7.4D+00
   Bfn.  Coefficient  Atom+Function         Bfn.  Coefficient  Atom+Function  
  ----- ------------  ---------------      ----- ------------  ---------------
    32      0.791986   1 C  dyz              14     -0.681908   1 C  py        
    57      0.621711   2 C  py              244     -0.336121   6 C  dxy       
   287      0.336126   7 C  dxy              75      0.333208   2 C  dyz       
   204     -0.303217   5 C  dyz               8     -0.273588   1 C  py        
   186     -0.273020   5 C  py              312      0.235782   8 N  py        

 Vector   39  Occ=0.000000D+00  E= 1.615301D-01
              MO Center=  2.3D-05,  2.4D-08,  9.8D-01, r^2= 2.0D+01
   Bfn.  Coefficient  Atom+Function         Bfn.  Coefficient  Atom+Function  
  ----- ------------  ---------------      ----- ------------  ---------------
    49     18.388229   2 C  s               383     -9.523799  13 H  s         
   365     -9.342343  11 H  s               374     -9.341930  12 H  s         
   307     -8.761049   8 N  s                33      8.254840   1 C  dzz       
    92     -6.882002   3 C  s               135     -6.881944   4 C  s         
   178     -6.331835   5 C  s               177      6.070524   5 C  s         

 Vector   40  Occ=0.000000D+00  E= 1.741794D-01
              MO Center=  2.3D-04,  1.3D-08, -1.9D+00, r^2= 1.0D+01
   Bfn.  Coefficient  Atom+Function         Bfn.  Coefficient  Atom+Function  
  ----- ------------  ---------------      ----- ------------  ---------------
    75      1.527668   2 C  dyz             186     -1.397021   5 C  py        
    57      1.120463   2 C  py              244     -1.078459   6 C  dxy       
   287      1.078400   7 C  dxy             388      0.951395  13 H  py        
   118     -0.942443   3 C  dyz             161     -0.942145   4 C  dyz       
    32      0.866352   1 C  dyz             370      0.811956  11 H  py        

 Vector   41  Occ=0.000000D+00  E= 1.765286D-01
              MO Center= -2.3D-06, -1.2D-07, -7.4D-01, r^2= 1.5D+01
   Bfn.  Coefficient  Atom+Function         Bfn.  Coefficient  Atom+Function  
  ----- ------------  ---------------      ----- ------------  ---------------
   347     15.526895   9 H  s               356    -15.526745  10 H  s         
   365     14.779777  11 H  s               374    -14.780124  12 H  s         
    91     -9.163324   3 C  s               134      9.163420   4 C  s         
   220     -8.398429   6 C  s               263      8.398759   7 C  s         
    99     -6.900965   3 C  px              142     -6.900916   4 C  px        

 Vector   42  Occ=0.000000D+00  E= 1.840480D-01
              MO Center= -1.9D-04,  1.2D-07, -8.0D-01, r^2= 1.3D+01
   Bfn.  Coefficient  Atom+Function         Bfn.  Coefficient  Atom+Function  
  ----- ------------  ---------------      ----- ------------  ---------------
    72      4.798152   2 C  dxy             100     -3.148837   3 C  py        
   143      3.148658   4 C  py              201      2.500118   5 C  dxy       
   118     -2.369046   3 C  dyz             161      2.369297   4 C  dyz       
   229     -2.270660   6 C  py              272      2.270860   7 C  py        
   247      1.497353   6 C  dyz             290     -1.497109   7 C  dyz       

 Vector   43  Occ=0.000000D+00  E= 1.875561D-01
              MO Center= -1.4D-05, -1.9D-09,  1.7D-02, r^2= 1.2D+01
   Bfn.  Coefficient  Atom+Function         Bfn.  Coefficient  Atom+Function  
  ----- ------------  ---------------      ----- ------------  ---------------
    32      2.132398   1 C  dyz             247      2.065783   6 C  dyz       
   290      2.065915   7 C  dyz              75      1.698375   2 C  dyz       
   186      1.686361   5 C  py              204     -1.665172   5 C  dyz       
   115     -1.558183   3 C  dxy             158      1.558130   4 C  dxy       
   229      1.450035   6 C  py              272      1.449814   7 C  py        

 Vector   44  Occ=0.000000D+00  E= 1.876319D-01
              MO Center=  2.1D-04,  2.9D-09, -6.9D-01, r^2= 1.6D+01
   Bfn.  Coefficient  Atom+Function         Bfn.  Coefficient  Atom+Function  
  ----- ------------  ---------------      ----- ------------  ---------------
    73     10.699365   2 C  dxz             365      6.994946  11 H  s         
   374     -6.994138  12 H  s                56      6.754572   2 C  px        
    13     -5.489420   1 C  px               30      4.083641   1 C  dxz       
   228     -3.809959   6 C  px              271     -3.809944   7 C  px        
   230      3.485122   6 C  pz              273     -3.484798   7 C  pz        

 Vector   45  Occ=0.000000D+00  E= 1.905232D-01
              MO Center= -2.1D-04,  6.9D-09, -1.3D-01, r^2= 1.9D+01
   Bfn.  Coefficient  Atom+Function         Bfn.  Coefficient  Atom+Function  
  ----- ------------  ---------------      ----- ------------  ---------------
   383     18.360769  13 H  s                33     12.506567   1 C  dzz       
    76     11.726562   2 C  dzz             177    -11.501087   5 C  s         
   307    -11.448386   8 N  s                92     -7.281816   3 C  s         
   135     -7.282260   4 C  s               187      6.679606   5 C  pz        
     6      6.439136   1 C  s                71      6.104384   2 C  dxx       

 Vector   46  Occ=0.000000D+00  E= 1.998252D-01
              MO Center=  2.5D-05, -7.2D-09,  1.6D+00, r^2= 1.7D+01
   Bfn.  Coefficient  Atom+Function         Bfn.  Coefficient  Atom+Function  
  ----- ------------  ---------------      ----- ------------  ---------------
     6     23.874151   1 C  s                49    -23.395248   2 C  s         
   307    -17.305302   8 N  s                76      6.708325   2 C  dzz       
   383     -5.870332  13 H  s               245      4.843130   6 C  dxz       
   288     -4.843295   7 C  dxz             221      4.808591   6 C  s         
   264      4.808761   7 C  s               365      4.806370  11 H  s         

 Vector   47  Occ=0.000000D+00  E= 2.268733D-01
              MO Center= -3.5D-06, -3.4D-08,  1.7D+00, r^2= 9.6D+00
   Bfn.  Coefficient  Atom+Function         Bfn.  Coefficient  Atom+Function  
  ----- ------------  ---------------      ----- ------------  ---------------
    75      6.645767   2 C  dyz              32      4.901980   1 C  dyz       
    14     -3.450838   1 C  py              115     -2.331071   3 C  dxy       
   158      2.331047   4 C  dxy              57      1.307164   2 C  py        
   315     -1.223820   8 N  py              100      1.102670   3 C  py        
   143      1.102679   4 C  py              118     -0.826588   3 C  dyz       

 Vector   48  Occ=0.000000D+00  E= 2.322685D-01
              MO Center=  1.7D-05, -7.0D-09, -3.6D-01, r^2= 1.8D+01
   Bfn.  Coefficient  Atom+Function         Bfn.  Coefficient  Atom+Function  
  ----- ------------  ---------------      ----- ------------  ---------------
   347     13.170244   9 H  s               356    -13.170308  10 H  s         
   365    -11.092427  11 H  s               374     11.092464  12 H  s         
   245     -8.163394   6 C  dxz             288     -8.163621   7 C  dxz       
   116     -7.037884   3 C  dxz             159     -7.038067   4 C  dxz       
   202     -6.324525   5 C  dxz             101     -6.277613   3 C  pz        

 Vector   49  Occ=0.000000D+00  E= 2.377526D-01
              MO Center=  5.8D-06,  3.6D-08, -6.4D-01, r^2= 1.5D+01
   Bfn.  Coefficient  Atom+Function         Bfn.  Coefficient  Atom+Function  
  ----- ------------  ---------------      ----- ------------  ---------------
   178     10.488814   5 C  s                92     -8.077275   3 C  s         
   135     -8.077435   4 C  s                 6      6.699269   1 C  s         
   383      6.083155  13 H  s                49      6.044699   2 C  s         
   307     -5.568107   8 N  s                71      4.807726   2 C  dxx       
   177     -4.595576   5 C  s                15      4.399770   1 C  pz        

 Vector   50  Occ=0.000000D+00  E= 2.498252D-01
              MO Center=  9.9D-05,  5.2D-09, -1.2D+00, r^2= 1.5D+01
   Bfn.  Coefficient  Atom+Function         Bfn.  Coefficient  Atom+Function  
  ----- ------------  ---------------      ----- ------------  ---------------
     6     13.152476   1 C  s                49    -11.914049   2 C  s         
   307     -6.858583   8 N  s               178     -4.287578   5 C  s         
   221     -3.495687   6 C  s               264     -3.494450   7 C  s         
   205      3.163586   5 C  dzz             365      3.072027  11 H  s         
   374      3.072503  12 H  s               177     -2.295737   5 C  s         

 Vector   51  Occ=0.000000D+00  E= 2.536669D-01
              MO Center= -4.0D-06,  8.7D-09, -1.4D+00, r^2= 1.5D+01
   Bfn.  Coefficient  Atom+Function         Bfn.  Coefficient  Atom+Function  
  ----- ------------  ---------------      ----- ------------  ---------------
   221    -13.330776   6 C  s               264     13.330065   7 C  s         
    92     12.351407   3 C  s               135    -12.351153   4 C  s         
    73    -10.225520   2 C  dxz              56     -7.317789   2 C  px        
   365     -7.213490  11 H  s               374      7.212826  12 H  s         
   347      5.446415   9 H  s               356     -5.446998  10 H  s         

 Vector   52  Occ=0.000000D+00  E= 2.552030D-01
              MO Center= -2.2D-05, -1.8D-08, -8.1D-01, r^2= 1.3D+01
   Bfn.  Coefficient  Atom+Function         Bfn.  Coefficient  Atom+Function  
  ----- ------------  ---------------      ----- ------------  ---------------
    75      4.730868   2 C  dyz             186     -3.794004   5 C  py        
    32      2.868903   1 C  dyz              14     -2.519454   1 C  py        
   244     -1.807363   6 C  dxy             287      1.807321   7 C  dxy       
   100      1.585441   3 C  py              143      1.585370   4 C  py        
   229      1.193381   6 C  py              272      1.193594   7 C  py        

 Vector   53  Occ=0.000000D+00  E= 2.578097D-01
              MO Center= -3.3D-05,  1.6D-08, -3.8D-01, r^2= 1.7D+01
   Bfn.  Coefficient  Atom+Function         Bfn.  Coefficient  Atom+Function  
  ----- ------------  ---------------      ----- ------------  ---------------
    49     20.097726   2 C  s                33    -11.533913   1 C  dzz       
   383     11.417634  13 H  s               178     11.317596   5 C  s         
    76     -9.621773   2 C  dzz             307      8.383755   8 N  s         
   221     -8.312685   6 C  s               264     -8.313559   7 C  s         
     6     -6.322827   1 C  s               200      6.284593   5 C  dxx       

 Vector   54  Occ=0.000000D+00  E= 2.598978D-01
              MO Center=  2.5D-05, -9.1D-10, -7.8D-02, r^2= 1.2D+01
   Bfn.  Coefficient  Atom+Function         Bfn.  Coefficient  Atom+Function  
  ----- ------------  ---------------      ----- ------------  ---------------
   229      2.146280   6 C  py              272     -2.146101   7 C  py        
   100     -1.226795   3 C  py              143      1.226814   4 C  py        
   118      1.172118   3 C  dyz             161     -1.172080   4 C  dyz       
   370     -0.999559  11 H  py              379      0.999537  12 H  py        
    72     -0.943189   2 C  dxy             115     -0.913032   3 C  dxy       

 Vector   55  Occ=0.000000D+00  E= 2.636065D-01
              MO Center= -2.7D-05, -1.5D-08, -6.6D-01, r^2= 1.4D+01
   Bfn.  Coefficient  Atom+Function         Bfn.  Coefficient  Atom+Function  
  ----- ------------  ---------------      ----- ------------  ---------------
    92      6.259161   3 C  s               135     -6.258974   4 C  s         
    73     -5.140011   2 C  dxz              56     -3.838207   2 C  px        
   114     -3.262744   3 C  dxx             157      3.262994   4 C  dxx       
   221      3.115132   6 C  s               264     -3.116269   7 C  s         
   202      3.034151   5 C  dxz             230     -2.817800   6 C  pz        

 Vector   56  Occ=0.000000D+00  E= 2.660415D-01
              MO Center=  9.7D-06,  2.2D-09, -1.2D+00, r^2= 1.3D+01
   Bfn.  Coefficient  Atom+Function         Bfn.  Coefficient  Atom+Function  
  ----- ------------  ---------------      ----- ------------  ---------------
   365     15.952217  11 H  s               374     15.952166  12 H  s         
   177    -12.352186   5 C  s               347     11.993025   9 H  s         
   356     11.992380  10 H  s               220     -9.351618   6 C  s         
   263     -9.351362   7 C  s               383      8.884237  13 H  s         
   178     -8.555936   5 C  s               221      7.696665   6 C  s         

 Vector   57  Occ=0.000000D+00  E= 2.921826D-01
              MO Center=  2.3D-05,  7.3D-09, -7.2D-01, r^2= 1.3D+01
   Bfn.  Coefficient  Atom+Function         Bfn.  Coefficient  Atom+Function  
  ----- ------------  ---------------      ----- ------------  ---------------
   178     13.928293   5 C  s               221    -11.196907   6 C  s         
   264    -11.196803   7 C  s                 6     -7.892630   1 C  s         
    92      6.645429   3 C  s               135      6.645667   4 C  s         
   347     -6.505485   9 H  s               356     -6.504871  10 H  s         
    49      4.872905   2 C  s               306     -4.634839   8 N  s         

 Vector   58  Occ=0.000000D+00  E= 2.949118D-01
              MO Center= -3.0D-05,  2.3D-10,  3.2D-01, r^2= 1.5D+01
   Bfn.  Coefficient  Atom+Function         Bfn.  Coefficient  Atom+Function  
  ----- ------------  ---------------      ----- ------------  ---------------
    73      7.015238   2 C  dxz              30      5.239858   1 C  dxz       
   347     -4.620128   9 H  s               356      4.620592  10 H  s         
   248      4.490692   6 C  dzz             291     -4.490746   7 C  dzz       
   202      4.190866   5 C  dxz              13     -3.897752   1 C  px        
    56      3.564097   2 C  px               99      3.323588   3 C  px        

 Vector   59  Occ=0.000000D+00  E= 2.957118D-01
              MO Center=  8.9D-06,  7.1D-09, -5.2D-01, r^2= 6.3D+00
   Bfn.  Coefficient  Atom+Function         Bfn.  Coefficient  Atom+Function  
  ----- ------------  ---------------      ----- ------------  ---------------
    57      2.982776   2 C  py               14     -2.436532   1 C  py        
    32      2.423975   1 C  dyz              75      2.114521   2 C  dyz       
   115      0.819625   3 C  dxy             158     -0.819698   4 C  dxy       
   100     -0.799242   3 C  py              143     -0.799291   4 C  py        
   370      0.643043  11 H  py              379      0.643044  12 H  py        

 Vector   60  Occ=0.000000D+00  E= 3.032614D-01
              MO Center=  9.7D-06, -5.2D-09,  6.2D-02, r^2= 1.3D+01
   Bfn.  Coefficient  Atom+Function         Bfn.  Coefficient  Atom+Function  
  ----- ------------  ---------------      ----- ------------  ---------------
    72      9.222261   2 C  dxy             100     -4.946208   3 C  py        
   143      4.946125   4 C  py              115      3.265972   3 C  dxy       
   158      3.265879   4 C  dxy              29     -3.055725   1 C  dxy       
   118     -2.952986   3 C  dyz             161      2.952999   4 C  dyz       
   201     -2.380004   5 C  dxy             229      1.269881   6 C  py        

 Vector   61  Occ=0.000000D+00  E= 3.056576D-01
              MO Center=  1.4D-05,  2.4D-08, -2.6D-01, r^2= 1.5D+01
   Bfn.  Coefficient  Atom+Function         Bfn.  Coefficient  Atom+Function  
  ----- ------------  ---------------      ----- ------------  ---------------
    49     17.406563   2 C  s                92    -17.251899   3 C  s         
   135    -17.251996   4 C  s               221     13.494855   6 C  s         
   264     13.495013   7 C  s               178    -11.209074   5 C  s         
   347      7.098601   9 H  s               356      7.098252  10 H  s         
    76      6.589534   2 C  dzz             365     -5.102242  11 H  s         

 Vector   62  Occ=0.000000D+00  E= 3.119181D-01
              MO Center= -1.6D-05, -1.8D-08, -1.1D+00, r^2= 1.5D+01
   Bfn.  Coefficient  Atom+Function         Bfn.  Coefficient  Atom+Function  
  ----- ------------  ---------------      ----- ------------  ---------------
    49     19.225034   2 C  s               306    -11.399295   8 N  s         
     6    -11.338883   1 C  s                33      8.707140   1 C  dzz       
   365     -8.505083  11 H  s               374     -8.505056  12 H  s         
    76      8.163346   2 C  dzz             178     -6.930055   5 C  s         
    71      5.935624   2 C  dxx             230     -5.732820   6 C  pz        

 Vector   63  Occ=0.000000D+00  E= 3.223446D-01
              MO Center= -2.8D-05, -2.0D-09, -1.2D+00, r^2= 1.5D+01
   Bfn.  Coefficient  Atom+Function         Bfn.  Coefficient  Atom+Function  
  ----- ------------  ---------------      ----- ------------  ---------------
    92      7.746089   3 C  s               135     -7.746885   4 C  s         
   221     -5.081547   6 C  s               264      5.082123   7 C  s         
   114     -5.027238   3 C  dxx             157      5.026980   4 C  dxx       
   119     -4.549361   3 C  dzz             162      4.549268   4 C  dzz       
   185      4.358155   5 C  px               73      4.055842   2 C  dxz       

 Vector   64  Occ=0.000000D+00  E= 3.311130D-01
              MO Center= -3.8D-05,  4.8D-08, -9.3D-01, r^2= 1.2D+01
   Bfn.  Coefficient  Atom+Function         Bfn.  Coefficient  Atom+Function  
  ----- ------------  ---------------      ----- ------------  ---------------
    75      6.155185   2 C  dyz             100      5.490273   3 C  py        
   143      5.490404   4 C  py              229     -5.342357   6 C  py        
   272     -5.342439   7 C  py              186      4.590025   5 C  py        
    57     -3.607163   2 C  py              115     -3.137544   3 C  dxy       
   158      3.137572   4 C  dxy             204      2.796107   5 C  dyz       

 Vector   65  Occ=0.000000D+00  E= 3.347952D-01
              MO Center= -6.6D-07, -9.8D-09, -7.3D-01, r^2= 1.3D+01
   Bfn.  Coefficient  Atom+Function         Bfn.  Coefficient  Atom+Function  
  ----- ------------  ---------------      ----- ------------  ---------------
   383    -20.827239  13 H  s                76     19.224599   2 C  dzz       
    33     16.954534   1 C  dzz             306    -16.147690   8 N  s         
    49     15.555388   2 C  s               187     -9.437379   5 C  pz        
   177      8.715826   5 C  s               365     -7.986845  11 H  s         
   374     -7.986462  12 H  s                71     -7.643374   2 C  dxx       

 Vector   66  Occ=0.000000D+00  E= 3.523232D-01
              MO Center=  1.1D-05,  5.9D-08, -4.3D-02, r^2= 1.5D+01
   Bfn.  Coefficient  Atom+Function         Bfn.  Coefficient  Atom+Function  
  ----- ------------  ---------------      ----- ------------  ---------------
    76     33.545406   2 C  dzz              33     24.812486   1 C  dzz       
   306    -22.590475   8 N  s               177    -21.193305   5 C  s         
   383     20.633707  13 H  s               365     19.656360  11 H  s         
   374     19.655649  12 H  s                49    -13.013836   2 C  s         
   220    -12.419977   6 C  s               245     12.414914   6 C  dxz       

 Vector   67  Occ=0.000000D+00  E= 3.539792D-01
              MO Center= -1.3D-05, -4.3D-09, -8.7D-01, r^2= 1.3D+01
   Bfn.  Coefficient  Atom+Function         Bfn.  Coefficient  Atom+Function  
  ----- ------------  ---------------      ----- ------------  ---------------
   365     24.379467  11 H  s               374    -24.379867  12 H  s         
   347     22.966329   9 H  s               356    -22.966191  10 H  s         
    91    -13.792616   3 C  s               134     13.792719   4 C  s         
   228    -12.594594   6 C  px              271    -12.594667   7 C  px        
   220    -12.450142   6 C  s               263     12.450544   7 C  s         

 Vector   68  Occ=0.000000D+00  E= 3.637914D-01
              MO Center=  1.7D-05, -7.0D-08,  5.4D-01, r^2= 1.4D+01
   Bfn.  Coefficient  Atom+Function         Bfn.  Coefficient  Atom+Function  
  ----- ------------  ---------------      ----- ------------  ---------------
    49     23.839123   2 C  s                 6    -19.883533   1 C  s         
   365     -7.141850  11 H  s               374     -7.142328  12 H  s         
    33      6.476900   1 C  dzz             243      5.422671   6 C  dxx       
   286      5.422582   7 C  dxx              74     -5.305524   2 C  dyy       
   307      5.237478   8 N  s               200      5.009550   5 C  dxx       

 Vector   69  Occ=0.000000D+00  E= 3.761010D-01
              MO Center=  1.7D-05,  5.5D-08,  6.4D-01, r^2= 1.1D+01
   Bfn.  Coefficient  Atom+Function         Bfn.  Coefficient  Atom+Function  
  ----- ------------  ---------------      ----- ------------  ---------------
    57      6.195443   2 C  py               75     -4.759137   2 C  dyz       
   115      3.838831   3 C  dxy             158     -3.838954   4 C  dxy       
    14      2.107745   1 C  py               32      2.064307   1 C  dyz       
   100     -2.005088   3 C  py              143     -2.005183   4 C  py        
   315     -1.570815   8 N  py              247     -1.545491   6 C  dyz       

 Vector   70  Occ=0.000000D+00  E= 3.854831D-01
              MO Center=  2.7D-05, -3.8D-08, -6.1D-01, r^2= 1.4D+01
   Bfn.  Coefficient  Atom+Function         Bfn.  Coefficient  Atom+Function  
  ----- ------------  ---------------      ----- ------------  ---------------
    49      8.742901   2 C  s               245     -7.777830   6 C  dxz       
   288      7.777869   7 C  dxz             200     -6.770471   5 C  dxx       
   205     -6.602059   5 C  dzz             248      6.061177   6 C  dzz       
   291      6.060621   7 C  dzz              71      5.118634   2 C  dxx       
   177      4.813859   5 C  s               365     -4.495774  11 H  s         

 Vector   71  Occ=0.000000D+00  E= 3.906957D-01
              MO Center=  8.0D-06, -1.5D-07, -2.1D+00, r^2= 1.1D+01
   Bfn.  Coefficient  Atom+Function         Bfn.  Coefficient  Atom+Function  
  ----- ------------  ---------------      ----- ------------  ---------------
   244      4.436138   6 C  dxy             287      4.436161   7 C  dxy       
    72      4.158953   2 C  dxy             247     -3.646981   6 C  dyz       
   290      3.646925   7 C  dyz             370     -3.514889  11 H  py        
   379      3.514890  12 H  py              118     -3.484057   3 C  dyz       
   161      3.483998   4 C  dyz             201      2.335953   5 C  dxy       

 Vector   72  Occ=0.000000D+00  E= 3.946236D-01
              MO Center=  2.6D-05,  1.1D-07, -1.3D+00, r^2= 1.5D+01
   Bfn.  Coefficient  Atom+Function         Bfn.  Coefficient  Atom+Function  
  ----- ------------  ---------------      ----- ------------  ---------------
    73      8.220206   2 C  dxz             243     -8.156773   6 C  dxx       
   286      8.156578   7 C  dxx             245     -7.649022   6 C  dxz       
   288     -7.648848   7 C  dxz             248      7.192349   6 C  dzz       
   291     -7.192019   7 C  dzz             185     -6.336286   5 C  px        
   371      6.170705  11 H  pz              380     -6.170481  12 H  pz        

 Vector   73  Occ=0.000000D+00  E= 3.965848D-01
              MO Center=  3.6D-04,  9.1D-08,  5.3D-01, r^2= 1.1D+01
   Bfn.  Coefficient  Atom+Function         Bfn.  Coefficient  Atom+Function  
  ----- ------------  ---------------      ----- ------------  ---------------
   115      6.684270   3 C  dxy             158      6.683113   4 C  dxy       
    72      5.659595   2 C  dxy             352     -4.079147   9 H  py        
   361      4.078334  10 H  py              100     -3.007074   3 C  py        
   143      3.006676   4 C  py              247      2.826508   6 C  dyz       
   290     -2.826412   7 C  dyz             244     -2.633114   6 C  dxy       

 Vector   74  Occ=0.000000D+00  E= 4.001667D-01
              MO Center= -3.5D-04,  4.0D-08, -1.7D+00, r^2= 1.3D+01
   Bfn.  Coefficient  Atom+Function         Bfn.  Coefficient  Atom+Function  
  ----- ------------  ---------------      ----- ------------  ---------------
   204     -9.568063   5 C  dyz              75      9.188723   2 C  dyz       
   388     -5.198546  13 H  py               14     -4.902809   1 C  py        
   244     -4.684091   6 C  dxy             287      4.683262   7 C  dxy       
   115     -4.098310   3 C  dxy             158      4.100056   4 C  dxy       
   118     -3.504459   3 C  dyz             161     -3.505047   4 C  dyz       

 Vector   75  Occ=0.000000D+00  E= 4.037474D-01
              MO Center= -7.6D-04, -5.0D-08, -2.0D+00, r^2= 1.0D+01
   Bfn.  Coefficient  Atom+Function         Bfn.  Coefficient  Atom+Function  
  ----- ------------  ---------------      ----- ------------  ---------------
   202     19.124599   5 C  dxz             185    -14.447223   5 C  px        
    56    -12.720625   2 C  px               73     -8.498700   2 C  dxz       
   387      8.425694  13 H  px              116     -7.510601   3 C  dxz       
   159     -7.543682   4 C  dxz             291     -7.469848   7 C  dzz       
   248      7.426017   6 C  dzz             273      7.198953   7 C  pz        

 Vector   76  Occ=0.000000D+00  E= 4.038683D-01
              MO Center=  7.3D-04, -9.5D-08, -5.2D-01, r^2= 1.4D+01
   Bfn.  Coefficient  Atom+Function         Bfn.  Coefficient  Atom+Function  
  ----- ------------  ---------------      ----- ------------  ---------------
    76     18.963345   2 C  dzz             306    -15.158674   8 N  s         
    33     14.941203   1 C  dzz             383     13.160965  13 H  s         
   245     11.556365   6 C  dxz             288    -11.588381   7 C  dxz       
   200      9.909189   5 C  dxx             101      9.764412   3 C  pz        
   144      9.801339   4 C  pz              177     -8.477955   5 C  s         

 Vector   77  Occ=0.000000D+00  E= 4.106530D-01
              MO Center=  4.5D-04, -1.6D-08, -2.2D-01, r^2= 1.2D+01
   Bfn.  Coefficient  Atom+Function         Bfn.  Coefficient  Atom+Function  
  ----- ------------  ---------------      ----- ------------  ---------------
   306     24.426180   8 N  s                15    -17.430831   1 C  pz        
    33    -14.984176   1 C  dzz              49    -10.189446   2 C  s         
    76     -8.316906   2 C  dzz             243      7.958977   6 C  dxx       
   286      7.957965   7 C  dxx             200      7.279224   5 C  dxx       
   365     -7.312725  11 H  s               374     -7.310350  12 H  s         

 Vector   78  Occ=0.000000D+00  E= 4.120031D-01
              MO Center= -4.9D-04,  2.8D-08,  3.8D-01, r^2= 1.6D+01
   Bfn.  Coefficient  Atom+Function         Bfn.  Coefficient  Atom+Function  
  ----- ------------  ---------------      ----- ------------  ---------------
    56      9.133925   2 C  px              119     -8.014714   3 C  dzz       
   162      8.018859   4 C  dzz             202      7.891506   5 C  dxz       
    73      7.543852   2 C  dxz             114      6.884474   3 C  dxx       
   157     -6.882449   4 C  dxx             353      6.267509   9 H  pz        
   362     -6.268161  10 H  pz              101     -5.679544   3 C  pz        

 Vector   79  Occ=0.000000D+00  E= 4.256593D-01
              MO Center= -2.1D-05, -1.6D-08, -1.3D+00, r^2= 1.1D+01
   Bfn.  Coefficient  Atom+Function         Bfn.  Coefficient  Atom+Function  
  ----- ------------  ---------------      ----- ------------  ---------------
    75      8.186206   2 C  dyz              14     -5.651132   1 C  py        
   244     -3.018789   6 C  dxy             287      3.018748   7 C  dxy       
    32      2.942738   1 C  dyz             186     -2.763103   5 C  py        
   370      2.535604  11 H  py              379      2.535597  12 H  py        
   118     -2.490750   3 C  dyz             161     -2.490672   4 C  dyz       

 Vector   80  Occ=0.000000D+00  E= 4.320945D-01
              MO Center=  2.2D-04, -8.7D-09, -7.8D-01, r^2= 1.1D+01
   Bfn.  Coefficient  Atom+Function         Bfn.  Coefficient  Atom+Function  
  ----- ------------  ---------------      ----- ------------  ---------------
   347     17.518750   9 H  s               356    -17.512130  10 H  s         
   365    -16.434947  11 H  s               374     16.441416  12 H  s         
    73    -15.530831   2 C  dxz             202    -11.040405   5 C  dxz       
    92     10.947344   3 C  s               135    -10.941896   4 C  s         
   221    -10.733276   6 C  s               264     10.734293   7 C  s         

 Vector   81  Occ=0.000000D+00  E= 4.336371D-01
              MO Center= -2.3D-04, -1.6D-08, -4.0D-01, r^2= 1.3D+01
   Bfn.  Coefficient  Atom+Function         Bfn.  Coefficient  Atom+Function  
  ----- ------------  ---------------      ----- ------------  ---------------
    49     19.769804   2 C  s               383     15.385655  13 H  s         
    71     14.886832   2 C  dxx             347    -11.826965   9 H  s         
   356    -11.836044  10 H  s               365    -11.025955  11 H  s         
   374    -11.018091  12 H  s                92    -10.308277   3 C  s         
   135    -10.313697   4 C  s               187      8.593303   5 C  pz        

 Vector   82  Occ=0.000000D+00  E= 4.383937D-01
              MO Center=  9.4D-06, -2.6D-08,  3.6D-01, r^2= 1.6D+01
   Bfn.  Coefficient  Atom+Function         Bfn.  Coefficient  Atom+Function  
  ----- ------------  ---------------      ----- ------------  ---------------
    33     12.382330   1 C  dzz             230    -11.118745   6 C  pz        
   273    -11.118030   7 C  pz               99     10.633496   3 C  px        
   142    -10.634399   4 C  px              347    -10.615433   9 H  s         
   356    -10.617329  10 H  s               245     -8.840202   6 C  dxz       
   288      8.839995   7 C  dxz              71      8.694985   2 C  dxx       

 Vector   83  Occ=0.000000D+00  E= 4.499753D-01
              MO Center=  1.6D-05,  5.4D-08,  5.4D-01, r^2= 1.2D+01
   Bfn.  Coefficient  Atom+Function         Bfn.  Coefficient  Atom+Function  
  ----- ------------  ---------------      ----- ------------  ---------------
   244      8.101614   6 C  dxy             287      8.101299   7 C  dxy       
   115     -6.275883   3 C  dxy             158     -6.275442   4 C  dxy       
    72     -5.259275   2 C  dxy             370     -3.654900  11 H  py        
   379      3.654795  12 H  py              100      2.893046   3 C  py        
   143     -2.892844   4 C  py              201      2.423856   5 C  dxy       

 Vector   84  Occ=0.000000D+00  E= 4.644761D-01
              MO Center= -2.3D-05, -9.8D-08, -1.3D-01, r^2= 1.1D+01
   Bfn.  Coefficient  Atom+Function         Bfn.  Coefficient  Atom+Function  
  ----- ------------  ---------------      ----- ------------  ---------------
   347     23.653453   9 H  s               356    -23.652985  10 H  s         
   116    -17.817128   3 C  dxz             159    -17.817291   4 C  dxz       
    73    -17.281970   2 C  dxz             185    -12.609723   5 C  px        
   365     12.211254  11 H  s               374    -12.210985  12 H  s         
   245     12.117519   6 C  dxz             288     12.117111   7 C  dxz       

 Vector   85  Occ=0.000000D+00  E= 4.823569D-01
              MO Center=  3.0D-07, -1.1D-05,  3.4D+00, r^2= 1.2D+01
   Bfn.  Coefficient  Atom+Function         Bfn.  Coefficient  Atom+Function  
  ----- ------------  ---------------      ----- ------------  ---------------
   307     26.399242   8 N  s                33    -17.606383   1 C  dzz       
     6    -17.075073   1 C  s               306    -15.520422   8 N  s         
    15     14.303672   1 C  pz                5     10.877640   1 C  s         
    49     10.910577   2 C  s               316     10.140202   8 N  pz        
    76     -8.773044   2 C  dzz             187      8.453717   5 C  pz        

 Vector   86  Occ=0.000000D+00  E= 4.828308D-01
              MO Center= -2.2D-05,  1.1D-05,  6.2D-03, r^2= 1.7D+01
   Bfn.  Coefficient  Atom+Function         Bfn.  Coefficient  Atom+Function  
  ----- ------------  ---------------      ----- ------------  ---------------
    75     20.563348   2 C  dyz             204     19.641675   5 C  dyz       
   244     17.920028   6 C  dxy             287    -17.920198   7 C  dxy       
   115    -17.170418   3 C  dxy             158     17.170549   4 C  dxy       
   186     14.533677   5 C  py              229    -12.984650   6 C  py        
   272    -12.984723   7 C  py               57    -12.201709   2 C  py        

 Vector   87  Occ=0.000000D+00  E= 5.037031D-01
              MO Center=  2.9D-05, -4.6D-08, -4.9D-01, r^2= 1.1D+01
   Bfn.  Coefficient  Atom+Function         Bfn.  Coefficient  Atom+Function  
  ----- ------------  ---------------      ----- ------------  ---------------
   365     37.394007  11 H  s               374    -37.393671  12 H  s         
   245     21.554010   6 C  dxz             288     21.553736   7 C  dxz       
   347     20.851777   9 H  s               356    -20.850751  10 H  s         
    91    -17.174655   3 C  s               134     17.174384   4 C  s         
   220    -16.137757   6 C  s               263     16.137862   7 C  s         

 Vector   88  Occ=0.000000D+00  E= 5.101041D-01
              MO Center= -6.8D-06,  9.1D-08, -1.4D+00, r^2= 1.3D+01
   Bfn.  Coefficient  Atom+Function         Bfn.  Coefficient  Atom+Function  
  ----- ------------  ---------------      ----- ------------  ---------------
   383     48.106962  13 H  s               205    -27.664940   5 C  dzz       
   347    -21.639749   9 H  s               356    -21.639417  10 H  s         
   230     20.791803   6 C  pz              273     20.791276   7 C  pz        
   116     18.395572   3 C  dxz             159    -18.395189   4 C  dxz       
   200     17.856148   5 C  dxx             178     17.519349   5 C  s         

 Vector   89  Occ=0.000000D+00  E= 5.129017D-01
              MO Center= -1.2D-05,  2.2D-07, -1.3D+00, r^2= 1.2D+01
   Bfn.  Coefficient  Atom+Function         Bfn.  Coefficient  Atom+Function  
  ----- ------------  ---------------      ----- ------------  ---------------
   383     43.027100  13 H  s               205    -22.938986   5 C  dzz       
   177    -17.744263   5 C  s                92    -15.859334   3 C  s         
   135    -15.859425   4 C  s                49     15.377604   2 C  s         
   221     14.190848   6 C  s               264     14.191023   7 C  s         
   220    -11.796989   6 C  s               263    -11.797219   7 C  s         

 Vector   90  Occ=0.000000D+00  E= 5.176651D-01
              MO Center= -3.1D-05,  3.0D-08,  1.0D-01, r^2= 1.5D+01
   Bfn.  Coefficient  Atom+Function         Bfn.  Coefficient  Atom+Function  
  ----- ------------  ---------------      ----- ------------  ---------------
[...]
     Occ.   26  a   ---  Virt.   29  a       -0.37726
     Occ.   27  a   ---  Virt.   28  a        0.89105
  ----------------------------------------------------------------------------
  Root   3 singlet a              0.244470886 a.u.                6.6524 eV 
  ----------------------------------------------------------------------------
     Transition Moments    X  0.00000   Y  0.00000   Z -0.00000
     Transition Moments   XX -0.00000  XY  0.13362  XZ -0.00000
     Transition Moments   YY  0.00000  YZ -0.00001  ZZ  0.00000
     Dipole Oscillator Strength                    0.0000000000
     Electric Quadrupole                           0.0000000014
     Magnetic Dipole                               0.0000003593
     Total Oscillator Strength                     0.0000003607

     Occ.   22  a   ---  Virt.   28  a        0.05633
     Occ.   22  a   ---  Virt.   38  a        0.12036
     Occ.   23  a   ---  Virt.   36  a        0.06280
     Occ.   25  a   ---  Virt.   28  a        0.94568
     Occ.   25  a   ---  Virt.   38  a       -0.23608
     Occ.   27  a   ---  Virt.   33  a        0.08056
     Occ.   27  a   ---  Virt.   36  a       -0.09674
  ----------------------------------------------------------------------------
  Root   4 singlet a              0.265381166 a.u.                7.2214 eV 
  ----------------------------------------------------------------------------
     Transition Moments    X -0.00030   Y -0.00000   Z -1.96310
     Transition Moments   XX  0.99736  XY  0.00000  XZ  0.00050
     Transition Moments   YY  0.07691  YZ  0.00000  ZZ  0.34651
     Dipole Oscillator Strength                    0.6818094730
     Electric Quadrupole                           0.0000000223
     Magnetic Dipole                               0.0000000000
     Total Oscillator Strength                     0.6818094953

     Occ.   23  a   ---  Virt.   28  a       -0.35556
     Occ.   23  a   ---  Virt.   38  a        0.08018
     Occ.   25  a   ---  Virt.   33  a        0.14185
     Occ.   25  a   ---  Virt.   36  a       -0.15555
     Occ.   26  a   ---  Virt.   29  a        0.81820
     Occ.   27  a   ---  Virt.   28  a        0.27738
     Occ.   27  a   ---  Virt.   38  a       -0.16505
     Occ.   27  a   ---  Virt.   59  a       -0.05102
  ----------------------------------------------------------------------------
  Root   5 singlet a              0.266541713 a.u.                7.2530 eV 
  ----------------------------------------------------------------------------
     Transition Moments    X -0.00000   Y  0.00000   Z -0.00000
     Transition Moments   XX  0.00000  XY -0.43561  XZ  0.00000
     Transition Moments   YY  0.00000  YZ -0.00001  ZZ  0.00000
     Dipole Oscillator Strength                    0.0000000000
     Electric Quadrupole                           0.0000000191
     Magnetic Dipole                               0.0000000001
     Total Oscillator Strength                     0.0000000193

     Occ.   22  a   ---  Virt.   28  a       -0.19301
     Occ.   23  a   ---  Virt.   33  a       -0.22388
     Occ.   23  a   ---  Virt.   36  a        0.30885
     Occ.   25  a   ---  Virt.   28  a       -0.14348
     Occ.   26  a   ---  Virt.   30  a       -0.08532
     Occ.   27  a   ---  Virt.   31  a       -0.07571
     Occ.   27  a   ---  Virt.   33  a        0.58449
     Occ.   27  a   ---  Virt.   36  a       -0.65738
  ----------------------------------------------------------------------------
  Root   6 singlet a              0.267480755 a.u.                7.2785 eV 
  ----------------------------------------------------------------------------
     Transition Moments    X -1.84461   Y -0.00000   Z  0.00034
     Transition Moments   XX -0.00015  XY -0.00000  XZ  2.83131
     Transition Moments   YY -0.00000  YZ  0.00001  ZZ -0.00010
     Dipole Oscillator Strength                    0.6067495841
     Electric Quadrupole                           0.0000008169
     Magnetic Dipole                               0.0000007118
     Total Oscillator Strength                     0.6067511128

     Occ.   16  a   ---  Virt.   33  a       -0.05547
     Occ.   21  a   ---  Virt.   36  a        0.05094
     Occ.   24  a   ---  Virt.   36  a        0.05448
     Occ.   26  a   ---  Virt.   28  a       -0.61902
     Occ.   26  a   ---  Virt.   40  a        0.05531
     Occ.   26  a   ---  Virt.   52  a       -0.05440
     Occ.   26  a   ---  Virt.   59  a       -0.08041
     Occ.   27  a   ---  Virt.   29  a        0.73062
  ----------------------------------------------------------------------------
  Root   7 singlet a              0.267508448 a.u.                7.2793 eV 
  ----------------------------------------------------------------------------
     Transition Moments    X -0.00002   Y  0.19812   Z -0.00000
     Transition Moments   XX -0.00000  XY  0.00010  XZ  0.00003
     Transition Moments   YY  0.00000  YZ -1.02328  ZZ -0.00000
     Dipole Oscillator Strength                    0.0069997681
     Electric Quadrupole                           0.0000001067
     Magnetic Dipole                               0.0000002448
     Total Oscillator Strength                     0.0070001197

     Occ.   23  a   ---  Virt.   30  a       -0.08246
     Occ.   23  a   ---  Virt.   32  a        0.12061
     Occ.   26  a   ---  Virt.   33  a        0.05120
     Occ.   27  a   ---  Virt.   30  a       -0.94148
     Occ.   27  a   ---  Virt.   32  a       -0.13958
     Occ.   27  a   ---  Virt.   34  a        0.12061
     Occ.   27  a   ---  Virt.   35  a        0.08631
     Occ.   27  a   ---  Virt.   39  a        0.09526
     Occ.   27  a   ---  Virt.   46  a       -0.14896
  ----------------------------------------------------------------------------
  Root   8 singlet a              0.274137035 a.u.                7.4597 eV 
  ----------------------------------------------------------------------------
     Transition Moments    X -0.00000   Y -0.00002   Z  0.00000
     Transition Moments   XX -0.00000  XY  2.35468  XZ  0.00000
     Transition Moments   YY  0.00000  YZ  0.00005  ZZ -0.00000
     Dipole Oscillator Strength                    0.0000000001
     Electric Quadrupole                           0.0000006083
     Magnetic Dipole                               0.0000017442
     Total Oscillator Strength                     0.0000023526

     Occ.   20  a   ---  Virt.   31  a       -0.08746
     Occ.   22  a   ---  Virt.   28  a       -0.06402
     Occ.   23  a   ---  Virt.   31  a        0.08267
     Occ.   26  a   ---  Virt.   30  a        0.95743
     Occ.   26  a   ---  Virt.   35  a       -0.11591
     Occ.   26  a   ---  Virt.   39  a       -0.06499
     Occ.   26  a   ---  Virt.   46  a        0.15108
     Occ.   26  a   ---  Virt.   50  a       -0.08162
     Occ.   27  a   ---  Virt.   36  a       -0.08746

              Target root =      1
          Target symmetry = none
      Ground state energy =   -324.298921076360
        Excitation energy =      0.193340484354
     Excited state energy =   -324.105580592006

  stored tddft:energy   -324.10558059200599     

    8 smallest eigenvalue differences (eV) 
--------------------------------------------------------
  No. Spin  Occ  Vir  Irrep   E(Occ)    E(Vir)   E(Diff)
--------------------------------------------------------
    1    1   27   28 a        -0.361     0.004     9.913
    2    1   26   28 a        -0.373     0.004    10.246
    3    1   27   29 a        -0.361     0.030    10.626
    4    1   26   29 a        -0.373     0.030    10.959
    5    1   27   30 a        -0.361     0.046    11.071
    6    1   26   30 a        -0.373     0.046    11.404
    7    1   27   31 a        -0.361     0.067    11.644
    8    1   27   32 a        -0.361     0.070    11.717
--------------------------------------------------------

  Entering Davidson iterations
  Restricted triplet excited states

  Iter   NTrls   NConv    DeltaV     DeltaE      Time   
  ----  ------  ------  ---------  ---------  --------- 
    1      8       0     0.75E-01   0.10+100      173.1
    2     16       0     0.17E-01   0.16E-01      175.3
    3     24       0     0.34E-01   0.31E-02      176.6
    4     32       0     0.24E+00   0.21E-01      177.1
    5     40       0     0.85E-01   0.29E-01      176.7
    6     48       1     0.55E-01   0.76E-02      176.4
    7     55       3     0.63E-01   0.44E-02      168.8
    8     60       4     0.29E-01   0.64E-02      150.5
    9     64       4     0.21E-01   0.14E-02      141.2
   10     68       4     0.21E-01   0.12E-02      141.0
   11     72       5     0.84E-02   0.38E-03      142.0
   12     75       6     0.39E-02   0.57E-04      133.4
   13     77       7     0.13E-02   0.96E-05      124.1
   14     78       7     0.46E-03   0.82E-06      116.6
   15     79       7     0.17E-03   0.12E-06      116.2
   16     80       8     0.90E-04   0.13E-07      115.0
  ----  ------  ------  ---------  ---------  --------- 
  Convergence criterion met

  Ground state a        -324.298921076360 a.u.

  ----------------------------------------------------------------------------
  Root   1 triplet a              0.140597263 a.u.                3.8258 eV 
  ----------------------------------------------------------------------------
     Transition Moments                    Spin forbidden
     Oscillator Strength                   Spin forbidden

     Occ.   20  a   ---  Virt.   28  a       -0.05720
     Occ.   20  a   ---  Virt.   47  a       -0.06691
     Occ.   23  a   ---  Virt.   28  a       -0.06579
     Occ.   23  a   ---  Virt.   38  a       -0.15105
     Occ.   26  a   ---  Virt.   29  a        0.40202
     Occ.   27  a   ---  Virt.   28  a       -0.88299
     Occ.   27  a   ---  Virt.   52  a        0.06051
  ----------------------------------------------------------------------------
  Root   2 triplet a              0.165569927 a.u.                4.5054 eV 
  ----------------------------------------------------------------------------
     Transition Moments                    Spin forbidden
     Oscillator Strength                   Spin forbidden

     Occ.   26  a   ---  Virt.   28  a       -0.95017
     Occ.   26  a   ---  Virt.   38  a       -0.10454
     Occ.   26  a   ---  Virt.   52  a        0.08500
     Occ.   27  a   ---  Virt.   29  a        0.26604
  ----------------------------------------------------------------------------
  Root   3 triplet a              0.170939678 a.u.                4.6515 eV 
  ----------------------------------------------------------------------------
     Transition Moments                    Spin forbidden
     Oscillator Strength                   Spin forbidden

     Occ.   20  a   ---  Virt.   38  a        0.05534
     Occ.   26  a   ---  Virt.   29  a        0.89815
     Occ.   26  a   ---  Virt.   54  a       -0.08388
     Occ.   27  a   ---  Virt.   28  a        0.41584
  ----------------------------------------------------------------------------
  Root   4 triplet a              0.184975310 a.u.                5.0334 eV 
  ----------------------------------------------------------------------------
     Transition Moments                    Spin forbidden
     Oscillator Strength                   Spin forbidden

     Occ.   23  a   ---  Virt.   29  a       -0.20628
     Occ.   26  a   ---  Virt.   28  a       -0.26878
     Occ.   27  a   ---  Virt.   29  a       -0.93559
     Occ.   27  a   ---  Virt.   54  a        0.06230
  ----------------------------------------------------------------------------
  Root   5 triplet a              0.222391957 a.u.                6.0516 eV 
  ----------------------------------------------------------------------------
     Transition Moments                    Spin forbidden
     Oscillator Strength                   Spin forbidden

     Occ.   20  a   ---  Virt.   38  a       -0.14239
     Occ.   22  a   ---  Virt.   33  a       -0.06881
     Occ.   22  a   ---  Virt.   36  a        0.09333
     Occ.   23  a   ---  Virt.   28  a        0.75766
     Occ.   23  a   ---  Virt.   38  a       -0.21588
     Occ.   23  a   ---  Virt.   43  a        0.07660
     Occ.   23  a   ---  Virt.   47  a       -0.06279
     Occ.   23  a   ---  Virt.   69  a        0.05157
     Occ.   25  a   ---  Virt.   33  a        0.18440
     Occ.   25  a   ---  Virt.   36  a       -0.24640
     Occ.   27  a   ---  Virt.   38  a        0.45311
     Occ.   27  a   ---  Virt.   40  a        0.05518
     Occ.   27  a   ---  Virt.   52  a       -0.09327
  ----------------------------------------------------------------------------
  Root   6 triplet a              0.227101809 a.u.                6.1798 eV 
  ----------------------------------------------------------------------------
     Transition Moments                    Spin forbidden
     Oscillator Strength                   Spin forbidden

     Occ.   20  a   ---  Virt.   36  a       -0.05090
     Occ.   22  a   ---  Virt.   28  a       -0.05176
     Occ.   22  a   ---  Virt.   38  a        0.13897
     Occ.   23  a   ---  Virt.   33  a        0.14796
     Occ.   23  a   ---  Virt.   36  a       -0.20176
     Occ.   25  a   ---  Virt.   28  a        0.82551
     Occ.   25  a   ---  Virt.   38  a       -0.30496
     Occ.   27  a   ---  Virt.   33  a       -0.21457
     Occ.   27  a   ---  Virt.   36  a        0.26288
  ----------------------------------------------------------------------------
  Root   7 triplet a              0.246324569 a.u.                6.7028 eV 
  ----------------------------------------------------------------------------
     Transition Moments                    Spin forbidden
     Oscillator Strength                   Spin forbidden

     Occ.   17  a   ---  Virt.   33  a       -0.05004
     Occ.   17  a   ---  Virt.   36  a        0.07245
     Occ.   20  a   ---  Virt.   28  a       -0.07075
     Occ.   22  a   ---  Virt.   33  a        0.18320
     Occ.   22  a   ---  Virt.   36  a       -0.25001
     Occ.   23  a   ---  Virt.   28  a        0.29502
     Occ.   25  a   ---  Virt.   33  a       -0.52127
     Occ.   25  a   ---  Virt.   36  a        0.68836
     Occ.   25  a   ---  Virt.   84  a       -0.05114
     Occ.   27  a   ---  Virt.   38  a        0.16356
  ----------------------------------------------------------------------------
  Root   8 triplet a              0.252977857 a.u.                6.8839 eV 
  ----------------------------------------------------------------------------
     Transition Moments                    Spin forbidden
     Oscillator Strength                   Spin forbidden

     Occ.   22  a   ---  Virt.   28  a        0.27597
     Occ.   22  a   ---  Virt.   38  a        0.05268
     Occ.   23  a   ---  Virt.   33  a       -0.23946
     Occ.   23  a   ---  Virt.   36  a        0.32491
     Occ.   25  a   ---  Virt.   28  a        0.43970
     Occ.   27  a   ---  Virt.   33  a        0.48167
     Occ.   27  a   ---  Virt.   36  a       -0.55833

              Target root =      1
          Target symmetry = none
      Ground state energy =   -324.298921076360
        Excitation energy =      0.140597263026
     Excited state energy =   -324.158323813334

  stored tddft:energy   -324.15832381333388     

 Task  times  cpu:     4631.0s     wall:     5491.5s


                                NWChem Input Module
                                -------------------


 Summary of allocated global arrays
-----------------------------------
  No active global arrays


MA_summarize_allocated_blocks: starting scan ...
heap block 'gridpts', handle 66, address 0x134bebc0:
	type of elements:		double precision
	number of elements:		10485646384
	address of client space:	0x134bec40
	index for client space:		12310751
	total number of bytes:		83885171208
MA_summarize_allocated_blocks: scan completed: 1 heap block, 0 stack blocks
MA usage statistics:

	allocation statistics:
					      heap	     stack
					      ----	     -----
	current number of blocks	         1	         0
	maximum number of blocks	        18	        53
	current total bytes		83885171208	         0
	maximum total bytes		83886761328	  43168888
	maximum total K-bytes		  83886762	     43169
	maximum total M-bytes		     83887	        44


                                     CITATION
                                     --------
                Please cite the following reference when publishing
                           results obtained with NWChem:

          E. Apra, E. J. Bylaska, W. A. de Jong, N. Govind, K. Kowalski,
       T. P. Straatsma, M. Valiev, H. J. J. van Dam, Y. Alexeev, J. Anchell,
       V. Anisimov, F. W. Aquino, R. Atta-Fynn, J. Autschbach, N. P. Bauman,
     J. C. Becca, D. E. Bernholdt, K. Bhaskaran-Nair, S. Bogatko, P. Borowski,
         J. Boschen, J. Brabec, A. Bruner, E. Cauet, Y. Chen, G. N. Chuev,
      C. J. Cramer, J. Daily, M. J. O. Deegan, T. H. Dunning Jr., M. Dupuis,
   K. G. Dyall, G. I. Fann, S. A. Fischer, A. Fonari, H. Fruchtl, L. Gagliardi,
      J. Garza, N. Gawande, S. Ghosh, K. Glaesemann, A. W. Gotz, J. Hammond,
       V. Helms, E. D. Hermes, K. Hirao, S. Hirata, M. Jacquelin, L. Jensen,
   B. G. Johnson, H. Jonsson, R. A. Kendall, M. Klemm, R. Kobayashi, V. Konkov,
      S. Krishnamoorthy, M. Krishnan, Z. Lin, R. D. Lins, R. J. Littlefield,
      A. J. Logsdail, K. Lopata, W. Ma, A. V. Marenich, J. Martin del Campo,
   D. Mejia-Rodriguez, J. E. Moore, J. M. Mullin, T. Nakajima, D. R. Nascimento,
    J. A. Nichols, P. J. Nichols, J. Nieplocha, A. Otero-de-la-Roza, B. Palmer,
    A. Panyala, T. Pirojsirikul, B. Peng, R. Peverati, J. Pittner, L. Pollack,
   R. M. Richard, P. Sadayappan, G. C. Schatz, W. A. Shelton, D. W. Silverstein,
   D. M. A. Smith, T. A. Soares, D. Song, M. Swart, H. L. Taylor, G. S. Thomas,
            V. Tipparaju, D. G. Truhlar, K. Tsemekhman, T. Van Voorhis,
      A. Vazquez-Mayagoitia, P. Verma, O. Villa, A. Vishnu, K. D. Vogiatzis,
        D. Wang, J. H. Weare, M. J. Williamson, T. L. Windus, K. Wolinski,
        A. T. Wong, Q. Wu, C. Yang, Q. Yu, M. Zacharias, Z. Zhang, Y. Zhao,
                                and R. J. Harrison
                        "NWChem: Past, present, and future
                         J. Chem. Phys. 152, 184102 (2020)
                               doi:10.1063/5.0004997

                                      AUTHORS
                                      -------
  E. Apra, E. J. Bylaska, N. Govind, K. Kowalski, M. Valiev, D. Mejia-Rodriguez,
       A. Kunitsa, N. P. Bauman, A. Panyala, W. A. de Jong, T. P. Straatsma,
   H. J. J. van Dam, D. Wang, T. L. Windus, J. Hammond, J. Autschbach, A. Woods,
    K. Bhaskaran-Nair, J. Brabec, K. Lopata, S. A. Fischer, S. Krishnamoorthy,
     M. Jacquelin, W. Ma, M. Klemm, O. Villa, Y. Chen, V. Anisimov, F. Aquino,
     S. Hirata, M. T. Hackler, E. Hermes, L. Jensen, J. E. Moore, J. C. Becca,
      V. Konjkov, T. Risthaus, M. Malagoli, A. Marenich, A. Otero-de-la-Roza,
        J. Mullin, P. Nichols, R. Peverati, J. Pittner, Y. Zhao, P.-D. Fan,
        A. Fonari, M. J. Williamson, R. J. Harrison, J. R. Rehr, M. Dupuis,
     D. Silverstein, D. M. A. Smith, J. Nieplocha, V. Tipparaju, M. Krishnan,
     B. E. Van Kuiken, A. Vazquez-Mayagoitia, M. Swart, Q. Wu, T. Van Voorhis,
     A. A. Auer, M. Nooijen, L. D. Crosby, E. Brown, G. Cisneros, G. I. Fann,
   H. Fruchtl, J. Garza, K. Hirao, R. A. Kendall, J. A. Nichols, K. Tsemekhman,
    K. Wolinski, J. Anchell, D. E. Bernholdt, P. Borowski, T. Clark, D. Clerc,
   H. Dachsel, M. J. O. Deegan, K. Dyall, D. Elwood, E. Glendening, M. Gutowski,
   A. C. Hess, J. Jaffe, B. G. Johnson, J. Ju, R. Kobayashi, R. Kutteh, Z. Lin,
   R. Littlefield, X. Long, B. Meng, T. Nakajima, S. Niu, L. Pollack, M. Rosing,
   K. Glaesemann, G. Sandrone, M. Stave, H. Taylor, G. Thomas, J. H. van Lenthe,
                               A. T. Wong, Z. Zhang.

 Total times  cpu:     4631.0s     wall:     5492.0s
