 argument  1 = /home/aditisingh4812/nw_chem/nwchem-run/nwchem-run/tddft/closed/lcwpbe/geom-MOL-1/beta-dipeptide.nw
                                         
                                         


             Northwest Computational Chemistry Package (NWChem) 7.2.3
             --------------------------------------------------------


                    Environmental Molecular Sciences Laboratory
                       Pacific Northwest National Laboratory
                                Richland, WA 99352

                              Copyright (c) 1994-2022
                       Pacific Northwest National Laboratory
                            Battelle Memorial Institute

             NWChem is an open-source computational chemistry package
                        distributed under the terms of the
                      Educational Community License (ECL) 2.0
             A copy of the license is included with this distribution
                              in the LICENSE.TXT file

                                  ACKNOWLEDGMENT
                                  --------------

            This software and its documentation were developed at the
            EMSL at Pacific Northwest National Laboratory, a multiprogram
            national laboratory, operated for the U.S. Department of Energy
            by Battelle under Contract Number DE-AC05-76RL01830. Support
            for this work was provided by the Department of Energy Office
            of Biological and Environmental Research, Office of Basic
            Energy Sciences, and the Office of Advanced Scientific Computing.


           Job information
           ---------------

    hostname        = p07
    program         = /home/aditisingh4812/nw_chem/nwchem-7.2.3-release.revision-d690e065-srconly.2024-08-27/nwchem-7.2.3/bin/LINUX64/nwchem
    date            = Wed Apr  9 11:29:13 2025

    compiled        = Mon_Apr_07_18:51:54_2025
    source          = /home/aditisingh4812/nw_chem/nwchem-7.2.3-release.revision-d690e065-srconly.2024-08-27/nwchem-7.2.3
    nwchem branch   = 7.2.3
    nwchem revision = d690e065
    ga revision     = 5.8.0
    use scalapack   = F
    input           = /home/aditisingh4812/nw_chem/nwchem-run/nwchem-run/tddft/closed/lcwpbe/geom-MOL-1/beta-dipeptide.nw
    prefix          = beta-dipeptide.
    data base       = ./beta-dipeptide.db
    status          = startup
    nproc           =       48
    time left       =     -1s



           Memory information
           ------------------

    heap     = 6553599994 doubles =  50000.0 Mbytes
    stack    = 6553599999 doubles =  50000.0 Mbytes
    global   = 6553600000 doubles =  50000.0 Mbytes (distinct from heap & stack)
    total    = ********** doubles = 150000.0 Mbytes
    verify   = yes
    hardfail = no 


           Directory information
           ---------------------

  0 permanent = .
  0 scratch   = .




                                NWChem Input Module
                                -------------------



 Scaling coordinates for geometry "geometry" by  1.889725989
 (inverse scale =  0.529177249)



                             Geometry "geometry" -> ""
                             -------------------------

 Output coordinates in angstroms (scale by  1.889725989 to convert to a.u.)

  No.       Tag          Charge          X              Y              Z
 ---- ---------------- ---------- -------------- -------------- --------------
    1 C                    6.0000     4.17666485    -0.79487805     0.00000000
    2 C                    6.0000     2.96827685     0.11913595     0.00000000
    3 C                    6.0000     0.52344185     0.27694095     0.00000000
    4 C                    6.0000    -0.67163615    -0.66154205     0.00000000
    5 C                    6.0000    -1.98392215     0.11007395     0.00000000
    6 C                    6.0000    -4.43948815    -0.12088705     0.00000000
    7 O                    8.0000     3.07339785     1.34778195     0.00000000
    8 O                    8.0000    -2.02361215     1.34242895     0.00000000
    9 N                    7.0000    -3.10011215    -0.67681205     0.00000000
   10 N                    7.0000     1.75309185    -0.50035105     0.00000000
   11 H                    1.0000     3.92192085    -1.85768705     0.00000000
   12 H                    1.0000     4.78244385    -0.57285705     0.88118000
   13 H                    1.0000     4.78244385    -0.57285705    -0.88118000
   14 H                    1.0000     1.70430185    -1.50937405     0.00000000
   15 H                    1.0000     0.49540285     0.93143695     0.87531400
   16 H                    1.0000     0.49540285     0.93143695    -0.87531400
   17 H                    1.0000    -0.64158315    -1.31471805     0.88222400
   18 H                    1.0000    -0.64158315    -1.31471805    -0.88222400
   19 H                    1.0000    -2.98665615    -1.68138805     0.00000000
   20 H                    1.0000    -4.33414115     0.96325995     0.00000000
   21 H                    1.0000    -4.99355915    -0.42857105     0.89125900
   22 H                    1.0000    -4.99355915    -0.42857105    -0.89125900

      Atomic Mass 
      ----------- 

      C                 12.000000
      O                 15.994910
      N                 14.003070
      H                  1.007825


 Effective nuclear repulsion energy (a.u.)     521.4405569223

            Nuclear Dipole moment (a.u.) 
            ----------------------------
        X                 Y               Z
 ---------------- ---------------- ----------------
    -0.0000000000    -0.0000000000     0.0000000000


            XYZ format geometry
            -------------------
    22
 geometry
 C                     4.17666485    -0.79487805     0.00000000
 C                     2.96827685     0.11913595     0.00000000
 C                     0.52344185     0.27694095     0.00000000
 C                    -0.67163615    -0.66154205     0.00000000
 C                    -1.98392215     0.11007395     0.00000000
 C                    -4.43948815    -0.12088705     0.00000000
 O                     3.07339785     1.34778195     0.00000000
 O                    -2.02361215     1.34242895     0.00000000
 N                    -3.10011215    -0.67681205     0.00000000
 N                     1.75309185    -0.50035105     0.00000000
 H                     3.92192085    -1.85768705     0.00000000
 H                     4.78244385    -0.57285705     0.88118000
 H                     4.78244385    -0.57285705    -0.88118000
 H                     1.70430185    -1.50937405     0.00000000
 H                     0.49540285     0.93143695     0.87531400
 H                     0.49540285     0.93143695    -0.87531400
 H                    -0.64158315    -1.31471805     0.88222400
 H                    -0.64158315    -1.31471805    -0.88222400
 H                    -2.98665615    -1.68138805     0.00000000
 H                    -4.33414115     0.96325995     0.00000000
 H                    -4.99355915    -0.42857105     0.89125900
 H                    -4.99355915    -0.42857105    -0.89125900

 ==============================================================================
                                internuclear distances
 ------------------------------------------------------------------------------
       center one      |      center two      | atomic units |  angstroms
 ------------------------------------------------------------------------------
    2 C                |   1 C                |     2.86318  |     1.51513
    4 C                |   3 C                |     2.87149  |     1.51953
    5 C                |   4 C                |     2.87678  |     1.52233
    7 O                |   2 C                |     2.33029  |     1.23313
    8 O                |   5 C                |     2.33002  |     1.23299
    9 N                |   5 C                |     2.58075  |     1.36568
    9 N                |   6 C                |     2.74042  |     1.45017
   10 N                |   2 C                |     2.57755  |     1.36398
   10 N                |   3 C                |     2.74903  |     1.45472
   11 H                |   1 C                |     2.06530  |     1.09291
   12 H                |   1 C                |     2.06382  |     1.09213
   13 H                |   1 C                |     2.06382  |     1.09213
   14 H                |  10 N                |     1.90900  |     1.01020
   15 H                |   3 C                |     2.06606  |     1.09331
   16 H                |   3 C                |     2.06606  |     1.09331
   17 H                |   4 C                |     2.07514  |     1.09812
   18 H                |   4 C                |     2.07514  |     1.09812
   19 H                |   9 N                |     1.91044  |     1.01096
   20 H                |   6 C                |     2.05839  |     1.08925
   21 H                |   6 C                |     2.06664  |     1.09362
   22 H                |   6 C                |     2.06664  |     1.09362
 ------------------------------------------------------------------------------
                         number of included internuclear distances:         21
 ==============================================================================



 ==============================================================================
                                 internuclear angles
 ------------------------------------------------------------------------------
        center 1       |       center 2       |       center 3       |  degrees
 ------------------------------------------------------------------------------
    2 C                |   1 C                |  11 H                |   113.62
    2 C                |   1 C                |  12 H                |   108.65
    2 C                |   1 C                |  13 H                |   108.65
   11 H                |   1 C                |  12 H                |   109.09
   11 H                |   1 C                |  13 H                |   109.09
   12 H                |   1 C                |  13 H                |   107.58
    1 C                |   2 C                |   7 O                |   122.21
    1 C                |   2 C                |  10 N                |   115.88
    7 O                |   2 C                |  10 N                |   121.90
    4 C                |   3 C                |  10 N                |   109.56
    4 C                |   3 C                |  15 H                |   110.46
    4 C                |   3 C                |  16 H                |   110.46
   10 N                |   3 C                |  15 H                |   109.97
   10 N                |   3 C                |  16 H                |   109.97
   15 H                |   3 C                |  16 H                |   106.38
    3 C                |   4 C                |   5 C                |   111.40
    3 C                |   4 C                |  17 H                |   110.23
    3 C                |   4 C                |  18 H                |   110.23
    5 C                |   4 C                |  17 H                |   108.97
    5 C                |   4 C                |  18 H                |   108.97
   17 H                |   4 C                |  18 H                |   106.91
    4 C                |   5 C                |   8 O                |   122.30
    4 C                |   5 C                |   9 N                |   114.36
    8 O                |   5 C                |   9 N                |   123.34
    9 N                |   6 C                |  20 H                |   106.99
    9 N                |   6 C                |  21 H                |   111.11
    9 N                |   6 C                |  22 H                |   111.11
   20 H                |   6 C                |  21 H                |   109.21
   20 H                |   6 C                |  22 H                |   109.21
   21 H                |   6 C                |  22 H                |   109.17
    5 C                |   9 N                |   6 C                |   122.28
    5 C                |   9 N                |  19 H                |   118.74
    6 C                |   9 N                |  19 H                |   118.99
    2 C                |  10 N                |   3 C                |   120.69
    2 C                |  10 N                |  14 H                |   119.78
    3 C                |  10 N                |  14 H                |   119.53
 ------------------------------------------------------------------------------
                            number of included internuclear angles:         36
 ==============================================================================





 Summary of "ao basis" -> "" (cartesian)
 ------------------------------------------------------------------------------
       Tag                 Description            Shells   Functions and Types
 ---------------- ------------------------------  ------  ---------------------
 *                         def2-TZVPD                 on all atoms 


  pbe96 is a nonlocal functional; adding pw91lda local functional. 

                                 NWChem DFT Module
                                 -----------------


                      Basis "ao basis" -> "ao basis" (cartesian)
                      -----
  C (Carbon)
  ----------
            Exponent  Coefficients 
       -------------- ---------------------------------------------------------
  1 S  1.35753497E+04  0.000222
  1 S  2.03523337E+03  0.001723
  1 S  4.63225624E+02  0.008926
  1 S  1.31200196E+02  0.035728
  1 S  4.28530159E+01  0.110763
  1 S  1.55841858E+01  0.242956

  2 S  6.20671385E+00  0.414403
  2 S  2.57648965E+00  0.237450

  3 S  5.76963394E-01  1.000000

  4 S  2.29728314E-01  1.000000

  5 S  9.51644400E-02  1.000000

  6 S  4.84754014E-02  1.000000

  7 P  3.46972322E+01  0.005333
  7 P  7.95826228E+00  0.035864
  7 P  2.37808269E+00  0.142159
  7 P  8.14332082E-01  0.342705

  8 P  2.88875473E-01  1.000000

  9 P  1.00568237E-01  1.000000

 10 D  1.09700000E+00  1.000000

 11 D  3.18000000E-01  1.000000

 12 D  9.09853364E-02  1.000000

 13 F  7.61000000E-01  1.000000

  O (Oxygen)
  ----------
            Exponent  Coefficients 
       -------------- ---------------------------------------------------------
  1 S  2.70323826E+04  0.000217
  1 S  4.05238714E+03  0.001684
  1 S  9.22327227E+02  0.008740
  1 S  2.61240710E+02  0.035240
  1 S  8.53546414E+01  0.111535
  1 S  3.10350352E+01  0.255890

  2 S  1.22608607E+01  0.397687
  2 S  4.99870760E+00  0.246278

  3 S  1.17031082E+00  1.000000

  4 S  4.64747410E-01  1.000000

  5 S  1.85045364E-01  1.000000

  6 S  7.02880263E-02  1.000000

  7 P  6.32749548E+01  0.006069
  7 P  1.46270494E+01  0.041913
  7 P  4.45012235E+00  0.161538
  7 P  1.52757996E+00  0.357070

  8 P  5.29351179E-01  1.000000

  9 P  1.74784213E-01  1.000000

 10 P  5.11127457E-02  1.000000

 11 D  2.31400000E+00  1.000000

 12 D  6.45000000E-01  1.000000

 13 D  1.46964774E-01  1.000000

 14 F  1.42800000E+00  1.000000

  N (Nitrogen)
  ------------
            Exponent  Coefficients 
       -------------- ---------------------------------------------------------
  1 S  1.97308006E+04  0.000219
  1 S  2.95789587E+03  0.001696
  1 S  6.73221336E+02  0.008795
  1 S  1.90682495E+02  0.035359
  1 S  6.22954419E+01  0.110958
  1 S  2.26541612E+01  0.249830

  2 S  8.97914774E+00  0.406239
  2 S  3.68630024E+00  0.243382

  3 S  8.46600768E-01  1.000000

  4 S  3.36471338E-01  1.000000

  5 S  1.36476537E-01  1.000000

  6 S  6.84416058E-02  1.000000

  7 P  4.92003805E+01  0.005555
  7 P  1.13467905E+01  0.038052
  7 P  3.42739724E+00  0.149537
  7 P  1.17855251E+00  0.349493

  8 P  4.16422050E-01  1.000000

  9 P  1.42608260E-01  1.000000

 10 D  1.65400000E+00  1.000000

 11 D  4.69000000E-01  1.000000

 12 D  1.28296421E-01  1.000000

 13 F  1.09300000E+00  1.000000

  H (Hydrogen)
  ------------
            Exponent  Coefficients 
       -------------- ---------------------------------------------------------
  1 S  3.40613410E+01  0.006025
  1 S  5.12357460E+00  0.045021
  1 S  1.16466260E+00  0.201897

  2 S  3.27230410E-01  1.000000

  3 S  1.03072410E-01  1.000000

  4 P  8.00000000E-01  1.000000

  5 P  9.57741296E-02  1.000000



 Summary of "ao basis" -> "ao basis" (cartesian)
 ------------------------------------------------------------------------------
       Tag                 Description            Shells   Functions and Types
 ---------------- ------------------------------  ------  ---------------------
 C                         def2-TZVPD               13       43   6s3p3d1f
 O                         def2-TZVPD               14       46   6s4p3d1f
 N                         def2-TZVPD               13       43   6s3p3d1f
 H                         def2-TZVPD                5        9   3s2p




 Summary of "ao basis" -> "ao basis" (cartesian)
 ------------------------------------------------------------------------------
       Tag                 Description            Shells   Functions and Types
 ---------------- ------------------------------  ------  ---------------------
 C                         def2-TZVPD               13       43   6s3p3d1f
 O                         def2-TZVPD               14       46   6s4p3d1f
 N                         def2-TZVPD               13       43   6s3p3d1f
 H                         def2-TZVPD                5        9   3s2p


  int_init: cando_txs set to always be  F
  Caching 1-el integrals 

            General Information
            -------------------
          SCF calculation type: DFT
          Wavefunction type:  closed shell.
          No. of atoms     :    22
          No. of electrons :    78
           Alpha electrons :    39
            Beta electrons :    39
          Charge           :     0
          Spin multiplicity:     1
          Use of symmetry is: off; symmetry adaption is: off
          Maximum number of iterations:  50
          AO basis - number of functions:   544
                     number of shells:   192
          Convergence on energy requested:  1.00D-06
          Convergence on density requested:  1.00D-05
          Convergence on gradient requested:  5.00D-04

              XC Information
              --------------
                     Hartree-Fock (Exact) Exchange  1.000          
                     LC-wPBE(h)Exchange Functional  1.000          
            Perdew 1991 LDA Correlation Functional  1.000 local    
           PerdewBurkeErnz. Correlation Functional  1.000 non-local

           Range-Separation Parameters        
           ---------------------------
           Alpha           :  0.00
           Beta            :  1.00
           Gamma           :  0.31
           Short-Range HF  :     F

             Grid Information
             ----------------
          Grid used for XC integration:  xfine     
          Radial quadrature: Mura-Knowles        
          Angular quadrature: Lebedev. 
          Tag              B.-S. Rad. Rad. Pts. Rad. Cut. Ang. Pts.
          ---              ---------- --------- --------- ---------
          C                   0.70      100          21.0      1454
          O                   0.60      100          20.0      1454
          N                   0.65      100          19.0      1454
          H                   0.35      100          22.0      1202
          Grid pruning is: on 
          Number of quadrature shells:  2200
          Spatial weights used:  Erf1

          Convergence Information
          -----------------------
          Convergence aids based upon iterative change in 
          total energy or number of iterations. 
          Levelshifting, if invoked, occurs when the 
          HOMO/LUMO gap drops below (HL_TOL):  1.00D-02
          DIIS, if invoked, will attempt to extrapolate 
          using up to (NFOCK): 10 stored Fock matrices.

                    Damping( 0%)  Levelshifting(0.5)       DIIS
                  --------------- ------------------- ---------------
          dE  on:    start            ASAP                start   
          dE off:    2 iters         50 iters            50 iters 


      Screening Tolerance Information
      -------------------------------
          Density screening/tol_rho:  1.00D-10
          AO Gaussian exp screening on grid/accAOfunc:  14
          CD Gaussian exp screening on grid/accCDfunc:  20
          XC Gaussian exp screening on grid/accXCfunc:  20
          Schwarz screening/accCoul:  1.00D-08

  
  CAM type calculations without CDFIT are
  only available with the direct option.
  Forcing Direct SCF
  

 WARNING : Found     7 linear dependencies 
 S eigenvalue threshold:     1.00000E-05
 Smallest S eigenvalue :     3.95101E-07
 Largest  S eigenvalue :     8.24909E-06


 !! The overlap matrix has   7 vectors deemed linearly dependent with
    eigenvalues:
 3.95D-07 1.17D-06 1.55D-06 3.42D-06 4.10D-06 6.16D-06 8.25D-06


      Superposition of Atomic Density Guess
      -------------------------------------

 Sum of atomic energies:        -490.21766608

      Non-variational initial energy
      ------------------------------

 Total energy =    -496.465236
 1-e energy   =   -1698.962839
 2-e energy   =     681.057046
 HOMO         =      -0.307676
 LUMO         =       0.027467

  WARNING: movecs_in_org=atomic not equal to movecs_in=./beta-dipeptide.movecs
   Time after variat. SCF:     28.3
   Time prior to 1st pass:     28.3

 Grid_pts file          = ./beta-dipeptide.gridpts.00
 Record size in doubles =  12289        No. of grid_pts per rec  =   3070
 Max. records in memory =     25        Max. recs in file   =  21109390

 Grid integrated density:      78.337170571811
 Requested integration accuracy:   0.10E-07

           Memory utilization after 1st SCF pass: 
           Heap Space remaining (MW):     3931.98          3931976538
          Stack Space remaining (MW):     6553.60          6553596596

   convergence    iter        energy       DeltaE   RMS-Dens  Diis-err    time
 ---------------- ----- ----------------- --------- --------- ---------  ------
 d= 0,ls=0.0,diis     1   -496.2135623482 -1.02D+03  1.16D+02  1.19D+02   106.8
 Grid integrated density:      78.000009256054
 Requested integration accuracy:   0.10E-07
 d= 0,ls=0.0,diis     2   -475.3241601045  2.09D+01  1.06D+01  6.77D+01   200.4
 Grid integrated density:      78.000010227249
 Requested integration accuracy:   0.10E-07
 d= 0,ls=0.0,diis     3   -474.0895817381  1.23D+00  3.15D+00  7.44D+01   303.1
 Grid integrated density:      78.000009247002
 Requested integration accuracy:   0.10E-07
 d= 0,ls=0.5,diis     4   -480.6020285389 -6.51D+00  4.54D+00  3.83D+01   395.2
 Grid integrated density:      78.000009272313
 Requested integration accuracy:   0.10E-07
 d= 0,ls=0.5,diis     5   -481.4945181375 -8.92D-01  3.44D+00  3.31D+01   485.4
 Grid integrated density:      78.000009057465
 Requested integration accuracy:   0.10E-07
 d= 0,ls=0.5,diis     6   -482.0635741882 -5.69D-01  4.40D+00  2.93D+01   578.2
 Grid integrated density:      78.000008836587
 Requested integration accuracy:   0.10E-07
 d= 0,ls=0.5,diis     7   -482.7748839965 -7.11D-01  4.50D+00  2.46D+01   684.8
 Grid integrated density:      78.000008562798
 Requested integration accuracy:   0.10E-07
 d= 0,ls=0.5,diis     8   -483.5237540201 -7.49D-01  5.96D+00  1.96D+01   779.3
 Grid integrated density:      78.000008048664
 Requested integration accuracy:   0.10E-07
 d= 0,ls=0.5,diis     9   -484.1586070894 -6.35D-01  5.06D+00  1.58D+01   871.2
 Grid integrated density:      78.000007347010
 Requested integration accuracy:   0.10E-07
 d= 0,ls=0.5,diis    10   -484.5478156528 -3.89D-01  6.44D+00  1.42D+01   971.0
 Grid integrated density:      78.000005317305
 Requested integration accuracy:   0.10E-07
 d= 0,ls=0.5,diis    11   -484.8541912211 -3.06D-01  1.20D+02  1.47D+01  1064.8
 d= 0,ls=0.5,diis    12   -492.5390265346 -7.68D+00  1.41D+00  1.15D+01  1147.1
 d= 0,ls=0.5,diis    13   -493.6930372984 -1.15D+00  1.98D-01  4.66D+00  1230.7
 d= 0,ls=0.5,diis    14   -495.3481482532 -1.66D+00  3.59D-02  1.67D+00  1305.8
 d= 0,ls=0.5,diis    15   -495.5555785146 -2.07D-01  9.08D-03  4.22D-01  1381.8
 d= 0,ls=0.5,diis    16   -495.6142125179 -5.86D-02  2.45D-03  1.26D-01  1460.0
  Resetting Diis
 d= 0,ls=0.5,diis    17   -495.6374510956 -2.32D-02  1.04D-03  2.18D-02  1537.4
 d= 0,ls=0.5,diis    18   -495.6428979839 -5.45D-03  4.64D-04  3.51D-03  1614.9
 d= 0,ls=0.5,diis    19   -495.6439940012 -1.10D-03  2.09D-04  1.18D-03  1697.2
 d= 0,ls=0.5,diis    20   -495.6443711228 -3.77D-04  1.33D-04  4.28D-04  1784.6
 d= 0,ls=0.5,diis    21   -495.6445408016 -1.70D-04  6.86D-05  1.64D-04  1865.3
 d= 0,ls=0.5,diis    22   -495.6446017167 -6.09D-05  4.09D-05  4.52D-05  1951.6
 d= 0,ls=0.5,diis    23   -495.6446232546 -2.15D-05  2.32D-05  1.60D-05  2033.4
 d= 0,ls=0.5,diis    24   -495.6446306068 -7.35D-06  1.37D-05  4.48D-06  2113.6
 d= 0,ls=0.5,diis    25   -495.6446329684 -2.36D-06  7.88D-06  1.64D-06  2194.0
 d= 0,ls=0.5,diis    26   -495.6446337065 -7.38D-07  4.97D-06  5.15D-07  2275.4


         Total DFT energy =     -495.644633932903
      One electron energy =    -1707.740544701154
           Coulomb energy =      758.330317932603
    Exchange-Corr. energy =      -67.674964086639
 Nuclear repulsion energy =      521.440556922287

 Numeric. integr. density =       78.000000159458

     Total iterative time =   2332.7s



                       DFT Final Molecular Orbital Analysis
                       ------------------------------------

 Vector    1  Occ=2.000000D+00  E=-1.889149D+01
              MO Center= -2.0D+00,  1.3D+00, -1.6D-10, r^2= 1.5D-02
   Bfn.  Coefficient  Atom+Function         Bfn.  Coefficient  Atom+Function  
  ----- ------------  ---------------      ----- ------------  ---------------
   306      0.632973   8 O  s               305      0.436086   8 O  s         
   308     -0.104716   8 O  s               307      0.094123   8 O  s         

 Vector    2  Occ=2.000000D+00  E=-1.887662D+01
              MO Center=  3.1D+00,  1.3D+00, -1.1D-13, r^2= 1.5D-02
   Bfn.  Coefficient  Atom+Function         Bfn.  Coefficient  Atom+Function  
  ----- ------------  ---------------      ----- ------------  ---------------
   260      0.632974   7 O  s               259      0.436088   7 O  s         
   262     -0.104721   7 O  s               261      0.094099   7 O  s         

 Vector    3  Occ=2.000000D+00  E=-1.419594D+01
              MO Center= -3.1D+00, -6.8D-01,  1.5D-09, r^2= 2.0D-02
   Bfn.  Coefficient  Atom+Function         Bfn.  Coefficient  Atom+Function  
  ----- ------------  ---------------      ----- ------------  ---------------
   352      0.619065   9 N  s               351      0.449493   9 N  s         
   354     -0.109695   9 N  s               353      0.100306   9 N  s         

 Vector    4  Occ=2.000000D+00  E=-1.418631D+01
              MO Center=  1.8D+00, -5.0D-01,  3.3D-09, r^2= 2.0D-02
   Bfn.  Coefficient  Atom+Function         Bfn.  Coefficient  Atom+Function  
  ----- ------------  ---------------      ----- ------------  ---------------
   395      0.619062  10 N  s               394      0.449487  10 N  s         
   397     -0.109767  10 N  s               396      0.100282  10 N  s         

 Vector    5  Occ=2.000000D+00  E=-1.016849D+01
              MO Center= -2.0D+00,  1.1D-01,  8.8D-10, r^2= 2.8D-02
   Bfn.  Coefficient  Atom+Function         Bfn.  Coefficient  Atom+Function  
  ----- ------------  ---------------      ----- ------------  ---------------
   174      0.599684   5 C  s               173      0.468175   5 C  s         
   176     -0.102134   5 C  s               175      0.101089   5 C  s         

 Vector    6  Occ=2.000000D+00  E=-1.015523D+01
              MO Center=  3.0D+00,  1.2D-01,  5.4D-09, r^2= 2.8D-02
   Bfn.  Coefficient  Atom+Function         Bfn.  Coefficient  Atom+Function  
  ----- ------------  ---------------      ----- ------------  ---------------
    45      0.599675   2 C  s                44      0.468174   2 C  s         
    47     -0.102577   2 C  s                46      0.100863   2 C  s         

 Vector    7  Occ=2.000000D+00  E=-1.009452D+01
              MO Center= -4.4D+00, -1.2D-01, -1.9D-09, r^2= 2.8D-02
   Bfn.  Coefficient  Atom+Function         Bfn.  Coefficient  Atom+Function  
  ----- ------------  ---------------      ----- ------------  ---------------
   217      0.599580   6 C  s               216      0.468184   6 C  s         
   219     -0.102878   6 C  s               218      0.101240   6 C  s         

 Vector    8  Occ=2.000000D+00  E=-1.009383D+01
              MO Center=  5.2D-01,  2.8D-01, -1.5D-09, r^2= 2.8D-02
   Bfn.  Coefficient  Atom+Function         Bfn.  Coefficient  Atom+Function  
  ----- ------------  ---------------      ----- ------------  ---------------
    88      0.599611   3 C  s                87      0.468184   3 C  s         
    90     -0.100674   3 C  s                89      0.100088   3 C  s         

 Vector    9  Occ=2.000000D+00  E=-1.008661D+01
              MO Center= -6.7D-01, -6.6D-01,  2.7D-10, r^2= 2.8D-02
   Bfn.  Coefficient  Atom+Function         Bfn.  Coefficient  Atom+Function  
  ----- ------------  ---------------      ----- ------------  ---------------
   131      0.599518   4 C  s               130      0.468143   4 C  s         
   132      0.101704   4 C  s               133     -0.101213   4 C  s         

 Vector   10  Occ=2.000000D+00  E=-1.006351D+01
              MO Center=  4.2D+00, -7.9D-01,  4.0D-09, r^2= 2.8D-02
   Bfn.  Coefficient  Atom+Function         Bfn.  Coefficient  Atom+Function  
  ----- ------------  ---------------      ----- ------------  ---------------
     2      0.599491   1 C  s                 1      0.468142   1 C  s         
     3      0.102687   1 C  s                 4     -0.102957   1 C  s         

 Vector   11  Occ=2.000000D+00  E=-1.126179D+00
              MO Center= -2.1D+00,  6.4D-01, -6.5D-09, r^2= 1.2D+00
   Bfn.  Coefficient  Atom+Function         Bfn.  Coefficient  Atom+Function  
  ----- ------------  ---------------      ----- ------------  ---------------
   308      0.294655   8 O  s               307      0.257916   8 O  s         
   175      0.209547   5 C  s               176      0.177572   5 C  s         
   306     -0.173849   8 O  s               174     -0.130258   5 C  s         
   354      0.130176   9 N  s               353      0.116571   9 N  s         
   312     -0.109524   8 O  py              309      0.102742   8 O  s         

 Vector   12  Occ=2.000000D+00  E=-1.112976D+00
              MO Center=  2.8D+00,  6.5D-01,  4.7D-07, r^2= 1.2D+00
   Bfn.  Coefficient  Atom+Function         Bfn.  Coefficient  Atom+Function  
  ----- ------------  ---------------      ----- ------------  ---------------
   262      0.287862   7 O  s               261      0.254518   7 O  s         
    46      0.209772   2 C  s                47      0.179731   2 C  s         
   260     -0.170788   7 O  s               397      0.141450  10 N  s         
    45     -0.130294   2 C  s               396      0.126020  10 N  s         
   266     -0.107379   7 O  py              263      0.103783   7 O  s         

 Vector   13  Occ=2.000000D+00  E=-1.024629D+00
              MO Center= -2.9D+00, -2.7D-01, -2.0D-08, r^2= 1.6D+00
   Bfn.  Coefficient  Atom+Function         Bfn.  Coefficient  Atom+Function  
  ----- ------------  ---------------      ----- ------------  ---------------
   354      0.339459   9 N  s               353      0.252789   9 N  s         
   308     -0.190500   8 O  s               352     -0.177995   9 N  s         
   307     -0.158374   8 O  s               180     -0.136393   5 C  py        
   219      0.121301   6 C  s               306      0.106896   8 O  s         
   218      0.103970   6 C  s               309     -0.098297   8 O  s         

 Vector   14  Occ=2.000000D+00  E=-1.017161D+00
              MO Center=  1.9D+00, -9.0D-02,  1.3D-07, r^2= 1.9D+00
   Bfn.  Coefficient  Atom+Function         Bfn.  Coefficient  Atom+Function  
  ----- ------------  ---------------      ----- ------------  ---------------
   397      0.322793  10 N  s               396      0.241844  10 N  s         
   262     -0.195966   7 O  s               395     -0.170009  10 N  s         
   261     -0.164222   7 O  s                90      0.133583   3 C  s         
    51     -0.123387   2 C  py               89      0.114429   3 C  s         
   260      0.110355   7 O  s               263     -0.084374   7 O  s         

 Vector   15  Occ=2.000000D+00  E=-8.967459D-01
              MO Center= -8.2D-02, -3.5D-01,  2.8D-07, r^2= 4.7D+00
   Bfn.  Coefficient  Atom+Function         Bfn.  Coefficient  Atom+Function  
  ----- ------------  ---------------      ----- ------------  ---------------
   133      0.265550   4 C  s               132      0.205259   4 C  s         
    90      0.164607   3 C  s               131     -0.140159   4 C  s         
    89      0.131245   3 C  s               219     -0.095194   6 C  s         
     4     -0.092262   1 C  s               397     -0.091832  10 N  s         
    88     -0.088405   3 C  s                47     -0.084017   2 C  s         

 Vector   16  Occ=2.000000D+00  E=-8.472602D-01
              MO Center=  1.8D+00, -5.1D-01,  1.6D-06, r^2= 1.1D+01
   Bfn.  Coefficient  Atom+Function         Bfn.  Coefficient  Atom+Function  
  ----- ------------  ---------------      ----- ------------  ---------------
     4      0.274647   1 C  s                 3      0.214575   1 C  s         
     2     -0.146115   1 C  s               219     -0.145992   6 C  s         
   133      0.108956   4 C  s               218     -0.104267   6 C  s         
    90     -0.100073   3 C  s                47      0.091813   2 C  s         
    51     -0.089426   2 C  py               46      0.085624   2 C  s         

 Vector   17  Occ=2.000000D+00  E=-8.149732D-01
              MO Center= -1.5D+00, -3.2D-01,  2.5D-07, r^2= 1.3D+01
   Bfn.  Coefficient  Atom+Function         Bfn.  Coefficient  Atom+Function  
  ----- ------------  ---------------      ----- ------------  ---------------
   219      0.271361   6 C  s               218      0.197885   6 C  s         
     4      0.162690   1 C  s               357     -0.141217   9 N  px        
   217     -0.133722   6 C  s                 3      0.129042   1 C  s         
    90      0.119525   3 C  s               176     -0.095788   5 C  s         
   397     -0.092042  10 N  s               133      0.091296   4 C  s         

 Vector   18  Occ=2.000000D+00  E=-7.478831D-01
              MO Center= -1.5D-01, -2.7D-01, -3.0D-08, r^2= 7.7D+00
   Bfn.  Coefficient  Atom+Function         Bfn.  Coefficient  Atom+Function  
  ----- ------------  ---------------      ----- ------------  ---------------
    90      0.269068   3 C  s               133     -0.184755   4 C  s         
    89      0.167967   3 C  s               219     -0.131521   6 C  s         
   132     -0.124508   4 C  s               400     -0.123345  10 N  px        
    88     -0.116033   3 C  s               354      0.115702   9 N  s         
     4      0.107472   1 C  s               218     -0.104327   6 C  s         

 Vector   19  Occ=2.000000D+00  E=-6.958253D-01
              MO Center= -5.3D-01, -4.4D-01,  2.6D-07, r^2= 7.2D+00
   Bfn.  Coefficient  Atom+Function         Bfn.  Coefficient  Atom+Function  
  ----- ------------  ---------------      ----- ------------  ---------------
   176      0.200237   5 C  s               358      0.179668   9 N  py        
   401      0.178840  10 N  py               47      0.158111   2 C  s         
   465     -0.129555  14 H  s               510     -0.126918  19 H  s         
   175      0.107582   5 C  s               404      0.106577  10 N  py        
   361      0.105555   9 N  py              308     -0.100501   8 O  s         

 Vector   20  Occ=2.000000D+00  E=-6.895906D-01
              MO Center= -5.3D-01, -4.5D-01,  5.4D-07, r^2= 8.3D+00
   Bfn.  Coefficient  Atom+Function         Bfn.  Coefficient  Atom+Function  
  ----- ------------  ---------------      ----- ------------  ---------------
   358      0.208933   9 N  py               47     -0.189585   2 C  s         
   400     -0.151310  10 N  px              510     -0.137849  19 H  s         
   401     -0.136752  10 N  py              179     -0.134586   5 C  px        
   361      0.123129   9 N  py              176      0.119466   5 C  s         
    46     -0.109409   2 C  s               465      0.105135  14 H  s         

 Vector   21  Occ=2.000000D+00  E=-6.137548D-01
              MO Center= -1.4D+00, -3.6D-01, -4.1D-07, r^2= 6.7D+00
   Bfn.  Coefficient  Atom+Function         Bfn.  Coefficient  Atom+Function  
  ----- ------------  ---------------      ----- ------------  ---------------
   176      0.179068   5 C  s               222     -0.150020   6 C  px        
   137      0.144854   4 C  py              143      0.136787   4 C  py        
   179      0.131112   5 C  px               99      0.127671   3 C  px        
   136     -0.123878   4 C  px               47     -0.111615   2 C  s         
   358     -0.111312   9 N  py              175      0.108140   5 C  s         

 Vector   22  Occ=2.000000D+00  E=-6.040687D-01
              MO Center=  6.9D-01, -3.1D-01, -1.4D-07, r^2= 8.7D+00
   Bfn.  Coefficient  Atom+Function         Bfn.  Coefficient  Atom+Function  
  ----- ------------  ---------------      ----- ------------  ---------------
   143      0.222716   4 C  py              401     -0.176691  10 N  py        
    93     -0.166361   3 C  px              185     -0.150489   5 C  px        
   137      0.123842   4 C  py                7     -0.120346   1 C  px        
   186     -0.114609   5 C  py              493      0.113377  17 H  s         
   502      0.113379  18 H  s               404     -0.112759  10 N  py        

 Vector   23  Occ=2.000000D+00  E=-6.007525D-01
              MO Center= -4.5D-01, -2.4D-01,  2.8D-07, r^2= 3.9D+00
   Bfn.  Coefficient  Atom+Function         Bfn.  Coefficient  Atom+Function  
  ----- ------------  ---------------      ----- ------------  ---------------
   144      0.222019   4 C  pz              138      0.208638   4 C  pz        
    95      0.178464   3 C  pz              141      0.143112   4 C  pz        
   493     -0.142878  17 H  s               502      0.142874  18 H  s         
   181      0.126899   5 C  pz               98      0.122689   3 C  pz        
   492      0.112930  17 H  s               501     -0.112929  18 H  s         

 Vector   24  Occ=2.000000D+00  E=-5.718068D-01
              MO Center=  1.0D+00, -1.6D-01, -1.4D-06, r^2= 1.3D+01
   Bfn.  Coefficient  Atom+Function         Bfn.  Coefficient  Atom+Function  
  ----- ------------  ---------------      ----- ------------  ---------------
     8      0.181927   1 C  py               50      0.179991   2 C  px        
   357      0.161461   9 N  px              222     -0.142518   6 C  px        
    14      0.138140   1 C  py               47      0.134061   2 C  s         
   438     -0.126341  11 H  s               266     -0.123018   7 O  py        
   263     -0.122002   7 O  s               363      0.114808   9 N  px        

 Vector   25  Occ=2.000000D+00  E=-5.627355D-01
              MO Center= -1.2D+00, -1.7D-01,  2.3D-06, r^2= 1.3D+01
   Bfn.  Coefficient  Atom+Function         Bfn.  Coefficient  Atom+Function  
  ----- ------------  ---------------      ----- ------------  ---------------
   224      0.201556   6 C  pz              359      0.161147   9 N  pz        
   230      0.148348   6 C  pz              362      0.142533   9 N  pz        
   227      0.138666   6 C  pz               52     -0.123182   2 C  pz        
   101     -0.120610   3 C  pz              402     -0.118216  10 N  pz        
   528      0.114412  21 H  s               537     -0.114410  22 H  s         

 Vector   26  Occ=2.000000D+00  E=-5.548959D-01
              MO Center= -2.4D-01,  4.2D-01,  2.4D-06, r^2= 9.3D+00
   Bfn.  Coefficient  Atom+Function         Bfn.  Coefficient  Atom+Function  
  ----- ------------  ---------------      ----- ------------  ---------------
   312      0.195911   8 O  py              176     -0.131893   5 C  s         
   315      0.125481   8 O  py              357      0.125753   9 N  px        
   143     -0.120539   4 C  py              308      0.116718   8 O  s         
   399      0.116813  10 N  s                94      0.113926   3 C  py        
   185      0.111131   5 C  px              363      0.110292   9 N  px        

 Vector   27  Occ=2.000000D+00  E=-5.441432D-01
              MO Center=  8.0D-01, -3.6D-01, -1.7D-06, r^2= 1.5D+01
   Bfn.  Coefficient  Atom+Function         Bfn.  Coefficient  Atom+Function  
  ----- ------------  ---------------      ----- ------------  ---------------
     9      0.198147   1 C  pz               15      0.189413   1 C  pz        
   224      0.170954   6 C  pz               52      0.147777   2 C  pz        
    12      0.136464   1 C  pz              138     -0.121449   4 C  pz        
   230      0.120058   6 C  pz              447      0.116967  12 H  s         
   456     -0.116967  13 H  s               227      0.116237   6 C  pz        

 Vector   28  Occ=2.000000D+00  E=-5.108580D-01
              MO Center= -3.0D-01,  2.7D-02,  1.7D-06, r^2= 1.3D+01
   Bfn.  Coefficient  Atom+Function         Bfn.  Coefficient  Atom+Function  
  ----- ------------  ---------------      ----- ------------  ---------------
   312      0.216238   8 O  py                7      0.152809   1 C  px        
    13      0.143767   1 C  px              180     -0.144157   5 C  py        
   315      0.139963   8 O  py               14      0.131620   1 C  py        
   179      0.130144   5 C  px              222      0.128317   6 C  px        
   136     -0.126699   4 C  px              143      0.126247   4 C  py        

 Vector   29  Occ=2.000000D+00  E=-5.019609D-01
              MO Center=  6.7D-02, -7.4D-02, -2.6D-06, r^2= 1.1D+01
   Bfn.  Coefficient  Atom+Function         Bfn.  Coefficient  Atom+Function  
  ----- ------------  ---------------      ----- ------------  ---------------
   101      0.283812   3 C  pz               95      0.175955   3 C  pz        
    15     -0.173130   1 C  pz                9     -0.163766   1 C  pz        
   144     -0.162286   4 C  pz              475     -0.145434  15 H  s         
   484      0.145438  16 H  s               181     -0.142797   5 C  pz        
   224      0.139212   6 C  pz              313     -0.138033   8 O  pz        

 Vector   30  Occ=2.000000D+00  E=-4.958462D-01
              MO Center= -9.6D-01,  1.3D-01,  1.5D-06, r^2= 1.4D+01
   Bfn.  Coefficient  Atom+Function         Bfn.  Coefficient  Atom+Function  
  ----- ------------  ---------------      ----- ------------  ---------------
   223      0.221244   6 C  py              229      0.196551   6 C  py        
   266     -0.172967   7 O  py              519      0.170815  20 H  s         
   226      0.149827   6 C  py              143      0.144509   4 C  py        
   520     -0.124684  20 H  s                 8     -0.123035   1 C  py        
   518      0.120023  20 H  s                51      0.118224   2 C  py        

 Vector   31  Occ=2.000000D+00  E=-4.904599D-01
              MO Center=  1.7D-01,  4.8D-01, -8.2D-07, r^2= 1.4D+01
   Bfn.  Coefficient  Atom+Function         Bfn.  Coefficient  Atom+Function  
  ----- ------------  ---------------      ----- ------------  ---------------
   266      0.243647   7 O  py               51     -0.170314   2 C  py        
   223      0.168119   6 C  py              312     -0.160608   8 O  py        
   229      0.152762   6 C  py              269      0.151420   7 O  py        
   519      0.131545  20 H  s                14      0.128516   1 C  py        
    54     -0.129012   2 C  py                8      0.127211   1 C  py        

 Vector   32  Occ=2.000000D+00  E=-4.828157D-01
              MO Center=  1.6D+00, -3.8D-02,  1.8D-06, r^2= 8.0D+00
   Bfn.  Coefficient  Atom+Function         Bfn.  Coefficient  Atom+Function  
  ----- ------------  ---------------      ----- ------------  ---------------
     7      0.197781   1 C  px               13      0.156771   1 C  px        
   400      0.146441  10 N  px               10      0.137860   1 C  px        
   406      0.134211  10 N  px               93     -0.130888   3 C  px        
    50     -0.126548   2 C  px              312     -0.123009   8 O  py        
   266     -0.121995   7 O  py              179     -0.113830   5 C  px        

 Vector   33  Occ=2.000000D+00  E=-4.725752D-01
              MO Center=  1.7D-01, -2.4D-02, -2.1D-07, r^2= 5.1D+00
   Bfn.  Coefficient  Atom+Function         Bfn.  Coefficient  Atom+Function  
  ----- ------------  ---------------      ----- ------------  ---------------
   100      0.255764   3 C  py              143     -0.246635   4 C  py        
    94      0.212711   3 C  py              137     -0.188848   4 C  py        
   136     -0.166574   4 C  px               93      0.161012   3 C  px        
   185      0.147422   5 C  px               97      0.137208   3 C  py        
   406     -0.127798  10 N  px              140     -0.122828   4 C  py        

 Vector   34  Occ=2.000000D+00  E=-4.633230D-01
              MO Center= -6.1D-01,  4.1D-02, -8.1D-07, r^2= 8.7D+00
   Bfn.  Coefficient  Atom+Function         Bfn.  Coefficient  Atom+Function  
  ----- ------------  ---------------      ----- ------------  ---------------
   313      0.234428   8 O  pz              316      0.190375   8 O  pz        
   144     -0.172381   4 C  pz              181      0.171145   5 C  pz        
   138     -0.164994   4 C  pz              184      0.130142   5 C  pz        
    15     -0.122590   1 C  pz              492     -0.118512  17 H  s         
   501      0.118512  18 H  s               319      0.116893   8 O  pz        

 Vector   35  Occ=2.000000D+00  E=-4.385097D-01
              MO Center=  1.9D+00,  3.0D-01, -3.6D-08, r^2= 5.5D+00
   Bfn.  Coefficient  Atom+Function         Bfn.  Coefficient  Atom+Function  
  ----- ------------  ---------------      ----- ------------  ---------------
   101      0.271286   3 C  pz              267     -0.242336   7 O  pz        
   270     -0.199026   7 O  pz              144     -0.193057   4 C  pz        
    95      0.177463   3 C  pz               52     -0.173771   2 C  pz        
    15      0.146016   1 C  pz                9      0.137188   1 C  pz        
    55     -0.132307   2 C  pz              273     -0.119516   7 O  pz        

 Vector   36  Occ=2.000000D+00  E=-3.601861D-01
              MO Center= -2.4D+00, -1.6D-02,  2.0D-06, r^2= 5.2D+00
   Bfn.  Coefficient  Atom+Function         Bfn.  Coefficient  Atom+Function  
  ----- ------------  ---------------      ----- ------------  ---------------
   359      0.330619   9 N  pz              362      0.299021   9 N  pz        
   313     -0.247629   8 O  pz              365      0.221843   9 N  pz        
   316     -0.207882   8 O  pz              230     -0.140753   6 C  pz        
   319     -0.135256   8 O  pz              161      0.132864   4 C  dyz       
   402      0.116867  10 N  pz              405      0.104402  10 N  pz        

 Vector   37  Occ=2.000000D+00  E=-3.569812D-01
              MO Center= -1.9D+00,  9.3D-01, -2.7D-06, r^2= 2.2D+00
   Bfn.  Coefficient  Atom+Function         Bfn.  Coefficient  Atom+Function  
  ----- ------------  ---------------      ----- ------------  ---------------
   311      0.433553   8 O  px              314      0.351100   8 O  px        
   317      0.282895   8 O  px              114      0.157608   3 C  dxx       
   143     -0.133248   4 C  py              475      0.133741  15 H  s         
   484      0.133701  16 H  s               185     -0.129150   5 C  px        
   195      0.129108   5 C  dxy             136      0.120361   4 C  px        

 Vector   38  Occ=2.000000D+00  E=-3.490801D-01
              MO Center=  1.4D+00,  1.9D-01,  1.3D-06, r^2= 4.7D+00
   Bfn.  Coefficient  Atom+Function         Bfn.  Coefficient  Atom+Function  
  ----- ------------  ---------------      ----- ------------  ---------------
   402      0.320892  10 N  pz              405      0.291683  10 N  pz        
   101     -0.278024   3 C  pz              267     -0.251073   7 O  pz        
   408      0.216281  10 N  pz              270     -0.210028   7 O  pz        
   475      0.151035  15 H  s               484     -0.151003  16 H  s         
   273     -0.137146   7 O  pz              144      0.133619   4 C  pz        

 Vector   39  Occ=2.000000D+00  E=-3.415176D-01
              MO Center=  3.0D+00,  9.3D-01, -1.1D-05, r^2= 2.1D+00
   Bfn.  Coefficient  Atom+Function         Bfn.  Coefficient  Atom+Function  
  ----- ------------  ---------------      ----- ------------  ---------------
   265      0.429714   7 O  px              268      0.354706   7 O  px        
   271      0.263521   7 O  px               56     -0.169142   2 C  px        
    66      0.125061   2 C  dxy              99     -0.117407   3 C  px        
   400      0.107554  10 N  px                8     -0.106089   1 C  py        
     7      0.104157   1 C  px               72      0.100501   2 C  dxy       

 Vector   40  Occ=0.000000D+00  E= 3.779728D-02
              MO Center= -1.1D+00, -2.0D+00,  2.8D-06, r^2= 1.6D+01
   Bfn.  Coefficient  Atom+Function         Bfn.  Coefficient  Atom+Function  
  ----- ------------  ---------------      ----- ------------  ---------------
   135      8.727944   4 C  s               399     -3.460762  10 N  s         
   221      3.248404   6 C  s                92     -2.465816   3 C  s         
   185     -2.319469   5 C  px                6      2.268976   1 C  s         
   114      2.139613   3 C  dxx             160     -2.137667   4 C  dyy       
    49      2.075570   2 C  s               356     -2.067038   9 N  s         

 Vector   41  Occ=0.000000D+00  E= 5.208637D-02
              MO Center=  1.8D-01, -1.4D+00,  5.2D-06, r^2= 3.1D+01
   Bfn.  Coefficient  Atom+Function         Bfn.  Coefficient  Atom+Function  
  ----- ------------  ---------------      ----- ------------  ---------------
     6      5.421638   1 C  s               221     -4.412765   6 C  s         
    92      2.143703   3 C  s               448      2.036700  12 H  s         
   457      2.036707  13 H  s               466     -1.910928  14 H  s         
    71     -1.888490   2 C  dxx             178     -1.842106   5 C  s         
   264     -1.725054   7 O  s               310      1.702818   8 O  s         

 Vector   42  Occ=0.000000D+00  E= 6.801629D-02
              MO Center= -1.3D+00, -8.6D-01,  4.2D-06, r^2= 3.1D+01
   Bfn.  Coefficient  Atom+Function         Bfn.  Coefficient  Atom+Function  
  ----- ------------  ---------------      ----- ------------  ---------------
   135      6.640732   4 C  s               221     -4.942213   6 C  s         
     6     -4.426955   1 C  s                92     -3.735094   3 C  s         
   356      3.526849   9 N  s               511     -2.883509  19 H  s         
   310      2.859416   8 O  s               178     -1.999515   5 C  s         
   439     -1.905021  11 H  s               264      1.718162   7 O  s         

 Vector   43  Occ=0.000000D+00  E= 7.846599D-02
              MO Center= -1.3D-01,  3.7D-01, -1.4D-04, r^2= 2.1D+01
   Bfn.  Coefficient  Atom+Function         Bfn.  Coefficient  Atom+Function  
  ----- ------------  ---------------      ----- ------------  ---------------
   178      9.120879   5 C  s                92      7.013189   3 C  s         
   310     -6.954557   8 O  s                49      6.348771   2 C  s         
   399     -4.897085  10 N  s               264     -4.823226   7 O  s         
     6     -4.297426   1 C  s               135     -3.633321   4 C  s         
   356     -3.584146   9 N  s               511      2.676990  19 H  s         

 Vector   44  Occ=0.000000D+00  E= 7.910425D-02
              MO Center= -9.6D-01, -3.3D-01,  1.5D-04, r^2= 8.6D+00
   Bfn.  Coefficient  Atom+Function         Bfn.  Coefficient  Atom+Function  
  ----- ------------  ---------------      ----- ------------  ---------------
   493      4.283133  17 H  s               502     -4.283276  18 H  s         
   144     -3.187019   4 C  pz              101      1.511263   3 C  pz        
   161      1.226409   4 C  dyz             475     -1.041823  15 H  s         
   484      1.041210  16 H  s               499     -0.910597  17 H  pz        
   508     -0.910622  18 H  pz              159     -0.814320   4 C  dxz       

 Vector   45  Occ=0.000000D+00  E= 9.112877D-02
              MO Center=  1.9D-01, -1.3D+00,  9.5D-06, r^2= 2.5D+01
   Bfn.  Coefficient  Atom+Function         Bfn.  Coefficient  Atom+Function  
  ----- ------------  ---------------      ----- ------------  ---------------
   356      5.995537   9 N  s               466      5.403512  14 H  s         
   399     -5.219782  10 N  s               439      4.648780  11 H  s         
   511     -4.482470  19 H  s               135     -4.011819   4 C  s         
   178      3.918783   5 C  s                 6      3.771061   1 C  s         
   221     -2.989431   6 C  s                92      2.729608   3 C  s         

 Vector   46  Occ=0.000000D+00  E= 9.967992D-02
              MO Center=  2.5D+00,  1.6D-01, -1.9D-05, r^2= 8.8D+00
   Bfn.  Coefficient  Atom+Function         Bfn.  Coefficient  Atom+Function  
  ----- ------------  ---------------      ----- ------------  ---------------
   448      2.326297  12 H  s               457     -2.326323  13 H  s         
   493     -1.487426  17 H  s               502      1.487373  18 H  s         
    15     -1.413923   1 C  pz              529     -0.965701  21 H  s         
   538      0.965652  22 H  s               144      0.877585   4 C  pz        
    30     -0.800697   1 C  dxz             230      0.556276   6 C  pz        

 Vector   47  Occ=0.000000D+00  E= 1.034520D-01
              MO Center=  1.6D+00,  8.1D-01,  2.7D-05, r^2= 2.7D+01
   Bfn.  Coefficient  Atom+Function         Bfn.  Coefficient  Atom+Function  
  ----- ------------  ---------------      ----- ------------  ---------------
    49     14.195869   2 C  s               264     -9.561556   7 O  s         
   178     -9.473512   5 C  s               399     -7.699002  10 N  s         
     6     -6.069224   1 C  s               310      5.292703   8 O  s         
   356      3.966000   9 N  s               511     -2.878697  19 H  s         
   398      2.691026  10 N  s               221      2.178831   6 C  s         

 Vector   48  Occ=0.000000D+00  E= 1.069311D-01
              MO Center= -1.4D+00,  2.6D-01,  5.6D-06, r^2= 1.5D+01
   Bfn.  Coefficient  Atom+Function         Bfn.  Coefficient  Atom+Function  
  ----- ------------  ---------------      ----- ------------  ---------------
   529      4.000293  21 H  s               538     -4.000314  22 H  s         
   493      3.766697  17 H  s               502     -3.766720  18 H  s         
   144     -2.797379   4 C  pz              230     -2.549446   6 C  pz        
   101      1.957005   3 C  pz              159     -1.343083   4 C  dxz       
   245      1.325977   6 C  dxz             448      1.252213  12 H  s         

 Vector   49  Occ=0.000000D+00  E= 1.137253D-01
              MO Center= -7.5D-01,  1.8D+00, -4.1D-06, r^2= 1.8D+01
   Bfn.  Coefficient  Atom+Function         Bfn.  Coefficient  Atom+Function  
  ----- ------------  ---------------      ----- ------------  ---------------
   310     10.252268   8 O  s               203     -5.059852   5 C  dyy       
   264      4.456388   7 O  s                48     -4.311938   2 C  s         
   186     -4.190641   5 C  py                5     -3.861393   1 C  s         
    92      3.817154   3 C  s               143     -3.763308   4 C  py        
   321     -3.178581   8 O  py              355     -3.148745   9 N  s         

 Vector   50  Occ=0.000000D+00  E= 1.283248D-01
              MO Center= -3.8D-01,  1.2D-01, -2.4D-06, r^2= 2.6D+01
   Bfn.  Coefficient  Atom+Function         Bfn.  Coefficient  Atom+Function  
  ----- ------------  ---------------      ----- ------------  ---------------
   529      6.619377  21 H  s               538     -6.619377  22 H  s         
   230     -4.090899   6 C  pz              475     -2.772667  15 H  s         
   484      2.772761  16 H  s               448     -2.261845  12 H  s         
   457      2.261771  13 H  s               101      2.097921   3 C  pz        
   245      1.933946   6 C  dxz             161     -1.878382   4 C  dyz       

 Vector   51  Occ=0.000000D+00  E= 1.308166D-01
              MO Center=  4.0D-02, -9.4D-01, -7.6D-07, r^2= 2.6D+01
   Bfn.  Coefficient  Atom+Function         Bfn.  Coefficient  Atom+Function  
  ----- ------------  ---------------      ----- ------------  ---------------
   135      8.913613   4 C  s               399     -7.368388  10 N  s         
   439      6.069646  11 H  s               178     -5.765086   5 C  s         
   466      4.496418  14 H  s               356     -4.006543   9 N  s         
    14      3.172828   1 C  py              448     -3.102363  12 H  s         
   457     -3.102340  13 H  s               203      2.951981   5 C  dyy       

 Vector   52  Occ=0.000000D+00  E= 1.351102D-01
              MO Center=  9.8D-01,  1.1D+00, -6.3D-06, r^2= 2.5D+01
   Bfn.  Coefficient  Atom+Function         Bfn.  Coefficient  Atom+Function  
  ----- ------------  ---------------      ----- ------------  ---------------
   178      7.298515   5 C  s               264     -6.276700   7 O  s         
    48      3.849818   2 C  s               439     -3.716245  11 H  s         
   203     -3.578649   5 C  dyy             135     -3.138262   4 C  s         
     5      3.066769   1 C  s                74      2.950695   2 C  dyy       
   143     -2.610853   4 C  py              511      2.609928  19 H  s         

 Vector   53  Occ=0.000000D+00  E= 1.394512D-01
              MO Center=  7.0D-01,  5.4D-01, -5.8D-06, r^2= 2.6D+01
   Bfn.  Coefficient  Atom+Function         Bfn.  Coefficient  Atom+Function  
  ----- ------------  ---------------      ----- ------------  ---------------
   178      8.075612   5 C  s                49      6.170972   2 C  s         
   135     -5.192206   4 C  s               399      4.841279  10 N  s         
   310     -4.748345   8 O  s               448     -4.190021  12 H  s         
   457     -4.190109  13 H  s                 6     -4.077566   1 C  s         
    92     -3.598846   3 C  s                13      3.356959   1 C  px        

 Vector   54  Occ=0.000000D+00  E= 1.436761D-01
              MO Center= -8.8D-01, -2.1D-01,  8.4D-06, r^2= 1.5D+01
   Bfn.  Coefficient  Atom+Function         Bfn.  Coefficient  Atom+Function  
  ----- ------------  ---------------      ----- ------------  ---------------
   493      7.735504  17 H  s               502     -7.735510  18 H  s         
   144     -5.637716   4 C  pz              475     -2.968501  15 H  s         
   484      2.968593  16 H  s               448     -2.895209  12 H  s         
   457      2.895138  13 H  s                15      2.262038   1 C  pz        
   101      2.212132   3 C  pz              161      1.988433   4 C  dyz       

 Vector   55  Occ=0.000000D+00  E= 1.471997D-01
              MO Center= -1.1D+00, -1.5D-02, -9.5D-06, r^2= 2.6D+01
   Bfn.  Coefficient  Atom+Function         Bfn.  Coefficient  Atom+Function  
  ----- ------------  ---------------      ----- ------------  ---------------
   529      7.671299  21 H  s               538     -7.671295  22 H  s         
   230     -5.224270   6 C  pz              448      4.459269  12 H  s         
   457     -4.459315  13 H  s               493     -3.321790  17 H  s         
   502      3.321835  18 H  s                15     -2.349303   1 C  pz        
   161     -2.156654   4 C  dyz             245      1.961168   6 C  dxz       

 Vector   56  Occ=0.000000D+00  E= 1.651331D-01
              MO Center=  7.1D-01, -7.8D-01,  4.8D-06, r^2= 2.5D+01
   Bfn.  Coefficient  Atom+Function         Bfn.  Coefficient  Atom+Function  
  ----- ------------  ---------------      ----- ------------  ---------------
    49     12.965556   2 C  s                92    -10.948192   3 C  s         
   439     -5.862889  11 H  s               399     -5.524002  10 N  s         
   264     -5.364765   7 O  s               356     -4.718643   9 N  s         
   178      4.687830   5 C  s               135      4.513671   4 C  s         
   448      3.661377  12 H  s               457      3.661192  13 H  s         

 Vector   57  Occ=0.000000D+00  E= 1.715792D-01
              MO Center= -1.0D+00,  2.0D-01,  9.3D-06, r^2= 2.6D+01
   Bfn.  Coefficient  Atom+Function         Bfn.  Coefficient  Atom+Function  
  ----- ------------  ---------------      ----- ------------  ---------------
    92     10.237641   3 C  s               439     -6.167727  11 H  s         
   228      5.904466   6 C  px              529      5.381214  21 H  s         
   538      5.381243  22 H  s               520     -5.121693  20 H  s         
   356      4.675990   9 N  s               355     -4.462863   9 N  s         
   310      3.942185   8 O  s               135     -3.411895   4 C  s         

 Vector   58  Occ=0.000000D+00  E= 1.769764D-01
              MO Center=  1.4D+00, -1.2D+00,  2.7D-07, r^2= 2.0D+01
   Bfn.  Coefficient  Atom+Function         Bfn.  Coefficient  Atom+Function  
  ----- ------------  ---------------      ----- ------------  ---------------
   448      7.562955  12 H  s               457     -7.562934  13 H  s         
    15     -6.046334   1 C  pz              529     -4.718389  21 H  s         
   538      4.718355  22 H  s               159     -4.479549   4 C  dxz       
   230      3.114519   6 C  pz              493      3.111069  17 H  s         
   502     -3.111029  18 H  s               144     -2.579090   4 C  pz        

 Vector   59  Occ=0.000000D+00  E= 1.781245D-01
              MO Center=  2.6D+00, -1.2D-01, -4.1D-06, r^2= 1.9D+01
   Bfn.  Coefficient  Atom+Function         Bfn.  Coefficient  Atom+Function  
  ----- ------------  ---------------      ----- ------------  ---------------
   475      6.588463  15 H  s               484     -6.588419  16 H  s         
   101     -5.405639   3 C  pz              448     -3.000474  12 H  s         
   457      3.000552  13 H  s               144      2.175436   4 C  pz        
   118     -1.990482   3 C  dyz             161      1.404228   4 C  dyz       
   230     -1.316690   6 C  pz              454      1.239709  12 H  pz        

 Vector   60  Occ=0.000000D+00  E= 1.820716D-01
              MO Center= -1.7D-01,  3.4D-01, -6.7D-07, r^2= 2.6D+01
   Bfn.  Coefficient  Atom+Function         Bfn.  Coefficient  Atom+Function  
  ----- ------------  ---------------      ----- ------------  ---------------
   178      5.833796   5 C  s               264      5.422883   7 O  s         
    48      5.268379   2 C  s                 5      4.619424   1 C  s         
   310     -4.550837   8 O  s               520      4.548839  20 H  s         
   135     -4.333534   4 C  s               356     -4.021777   9 N  s         
   448     -4.021605  12 H  s               457     -4.021601  13 H  s         

 Vector   61  Occ=0.000000D+00  E= 1.914440D-01
              MO Center= -9.9D-01,  1.3D-01,  1.4D-06, r^2= 2.0D+01
   Bfn.  Coefficient  Atom+Function         Bfn.  Coefficient  Atom+Function  
  ----- ------------  ---------------      ----- ------------  ---------------
   511      6.822391  19 H  s               310     -5.359954   8 O  s         
    92     -4.705773   3 C  s               178     -4.312526   5 C  s         
   264     -3.950898   7 O  s               135      3.838156   4 C  s         
   466      3.767063  14 H  s               439     -3.608528  11 H  s         
   157     -3.528297   4 C  dxx             229      3.407059   6 C  py        

 Vector   62  Occ=0.000000D+00  E= 2.038317D-01
              MO Center=  3.6D-01,  8.6D-02,  2.5D-05, r^2= 2.4D+01
   Bfn.  Coefficient  Atom+Function         Bfn.  Coefficient  Atom+Function  
  ----- ------------  ---------------      ----- ------------  ---------------
    92      9.405903   3 C  s               399     -9.219214  10 N  s         
   135      7.452524   4 C  s                48     -5.837474   2 C  s         
   520      5.579358  20 H  s               448      5.047634  12 H  s         
   457      5.047563  13 H  s               228     -4.835919   6 C  px        
   178     -4.760961   5 C  s               529     -4.692224  21 H  s         

 Vector   63  Occ=0.000000D+00  E= 2.050502D-01
              MO Center= -5.7D-01,  2.1D-01, -2.7D-05, r^2= 2.3D+01
   Bfn.  Coefficient  Atom+Function         Bfn.  Coefficient  Atom+Function  
  ----- ------------  ---------------      ----- ------------  ---------------
   475      8.669786  15 H  s               484     -8.670214  16 H  s         
   493     -6.251843  17 H  s               502      6.251517  18 H  s         
   101     -5.995309   3 C  pz              144      4.531795   4 C  pz        
   118     -3.085843   3 C  dyz             161     -2.667374   4 C  dyz       
   116     -1.747077   3 C  dxz             247     -1.602762   6 C  dyz       

 Vector   64  Occ=0.000000D+00  E= 2.086172D-01
              MO Center= -2.0D+00, -9.3D-01, -4.0D-06, r^2= 1.6D+01
   Bfn.  Coefficient  Atom+Function         Bfn.  Coefficient  Atom+Function  
  ----- ------------  ---------------      ----- ------------  ---------------
   356    -12.217199   9 N  s               135     11.378807   4 C  s         
   178      9.669931   5 C  s               399     -8.693538  10 N  s         
    92     -8.509124   3 C  s                49      6.576368   2 C  s         
   114      6.583297   3 C  dxx             185     -6.115329   5 C  px        
   220     -4.688450   6 C  s               221      4.314280   6 C  s         

 Vector   65  Occ=0.000000D+00  E= 2.160809D-01
              MO Center= -6.0D-01, -1.6D-01,  1.4D-06, r^2= 2.1D+01
   Bfn.  Coefficient  Atom+Function         Bfn.  Coefficient  Atom+Function  
  ----- ------------  ---------------      ----- ------------  ---------------
   310      8.456948   8 O  s                92     -7.058762   3 C  s         
    49      5.481336   2 C  s               356     -5.119119   9 N  s         
   475     -4.166113  15 H  s               484     -4.166224  16 H  s         
   399     -4.042059  10 N  s               466     -3.872709  14 H  s         
   100      3.441441   3 C  py              398      3.210734  10 N  s         

 Vector   66  Occ=0.000000D+00  E= 2.203381D-01
              MO Center= -6.5D-01, -5.7D-01, -9.4D-07, r^2= 2.3D+01
   Bfn.  Coefficient  Atom+Function         Bfn.  Coefficient  Atom+Function  
  ----- ------------  ---------------      ----- ------------  ---------------
   529      6.634345  21 H  s               538     -6.634327  22 H  s         
   230     -5.369420   6 C  pz              448      4.268764  12 H  s         
   457     -4.268841  13 H  s                15     -3.850482   1 C  pz        
   159      3.521062   4 C  dxz             101     -2.970372   3 C  pz        
   247      2.629548   6 C  dyz             475      2.163846  15 H  s         

 Vector   67  Occ=0.000000D+00  E= 2.216538D-01
              MO Center=  8.2D-01, -6.0D-02, -6.8D-06, r^2= 2.2D+01
   Bfn.  Coefficient  Atom+Function         Bfn.  Coefficient  Atom+Function  
  ----- ------------  ---------------      ----- ------------  ---------------
    92     10.483317   3 C  s               178     10.216230   5 C  s         
   135     -9.470029   4 C  s               356     -8.584625   9 N  s         
   264     -8.390179   7 O  s                 5     -6.290076   1 C  s         
    48     -6.025797   2 C  s               439      5.930979  11 H  s         
   475      5.887894  15 H  s               484      5.887942  16 H  s         

 Vector   68  Occ=0.000000D+00  E= 2.299799D-01
              MO Center=  1.9D-01, -4.1D-01,  3.1D-06, r^2= 2.6D+01
   Bfn.  Coefficient  Atom+Function         Bfn.  Coefficient  Atom+Function  
  ----- ------------  ---------------      ----- ------------  ---------------
   356     11.350589   9 N  s                92     10.393507   3 C  s         
     6      6.150975   1 C  s               475      6.152259  15 H  s         
   484      6.152197  16 H  s               178     -5.999891   5 C  s         
   143     -5.717806   4 C  py              399     -5.742600  10 N  s         
   100     -4.610572   3 C  py              221     -4.529578   6 C  s         

 Vector   69  Occ=0.000000D+00  E= 2.358670D-01
              MO Center= -3.4D-01, -3.0D-01, -3.2D-07, r^2= 2.0D+01
   Bfn.  Coefficient  Atom+Function         Bfn.  Coefficient  Atom+Function  
  ----- ------------  ---------------      ----- ------------  ---------------
    92      7.509570   3 C  s               511      6.152864  19 H  s         
   520     -5.775760  20 H  s                 5      5.311357   1 C  s         
   178     -5.110988   5 C  s                48      5.006180   2 C  s         
    56      4.767855   2 C  px              439     -4.007067  11 H  s         
   448     -3.910115  12 H  s               457     -3.910131  13 H  s         

 Vector   70  Occ=0.000000D+00  E= 2.419864D-01
              MO Center= -4.9D-01, -9.1D-02,  3.4D-06, r^2= 1.7D+01
   Bfn.  Coefficient  Atom+Function         Bfn.  Coefficient  Atom+Function  
  ----- ------------  ---------------      ----- ------------  ---------------
   475      5.739523  15 H  s               484     -5.739392  16 H  s         
   101     -4.856559   3 C  pz               32     -2.313871   1 C  dyz       
   230      2.189556   6 C  pz              247      1.702139   6 C  dyz       
   118     -1.563655   3 C  dyz             529     -1.464453  21 H  s         
   538      1.464496  22 H  s               526     -1.352492  20 H  pz        

 Vector   71  Occ=0.000000D+00  E= 2.429083D-01
              MO Center= -1.4D+00, -2.7D-02,  2.1D-07, r^2= 2.8D+01
   Bfn.  Coefficient  Atom+Function         Bfn.  Coefficient  Atom+Function  
  ----- ------------  ---------------      ----- ------------  ---------------
   178      8.218706   5 C  s               221     -7.771334   6 C  s         
   399     -6.943930  10 N  s                49      5.319510   2 C  s         
     6     -4.242216   1 C  s               310     -4.071219   8 O  s         
   229      4.014140   6 C  py              157     -3.941316   4 C  dxx       
    92      3.757897   3 C  s               520     -3.593419  20 H  s         

 Vector   72  Occ=0.000000D+00  E= 2.457696D-01
              MO Center=  1.5D-01, -5.6D-01,  3.7D-06, r^2= 2.3D+01
   Bfn.  Coefficient  Atom+Function         Bfn.  Coefficient  Atom+Function  
  ----- ------------  ---------------      ----- ------------  ---------------
   135     13.577727   4 C  s                49     -9.275354   2 C  s         
   399      7.792330  10 N  s                48      7.477175   2 C  s         
     5      7.219287   1 C  s               439     -6.965276  11 H  s         
   511     -6.881055  19 H  s               178     -6.219382   5 C  s         
   221     -4.826538   6 C  s                92     -4.744704   3 C  s         

 Vector   73  Occ=0.000000D+00  E= 2.600891D-01
              MO Center= -1.3D+00,  1.6D-01, -1.4D-04, r^2= 1.5D+01
   Bfn.  Coefficient  Atom+Function         Bfn.  Coefficient  Atom+Function  
  ----- ------------  ---------------      ----- ------------  ---------------
   493     11.197453  17 H  s               502    -11.197504  18 H  s         
   144     -8.200049   4 C  pz              161      4.637867   4 C  dyz       
   230     -3.874246   6 C  pz              529      3.672283  21 H  s         
   538     -3.673446  22 H  s               159     -2.220950   4 C  dxz       
   202     -2.016872   5 C  dxz             498      1.832670  17 H  py        

 Vector   74  Occ=0.000000D+00  E= 2.602656D-01
              MO Center= -3.2D-01, -1.4D-01,  1.4D-04, r^2= 1.8D+01
   Bfn.  Coefficient  Atom+Function         Bfn.  Coefficient  Atom+Function  
  ----- ------------  ---------------      ----- ------------  ---------------
    49     13.092458   2 C  s                92    -12.912694   3 C  s         
   178     -7.427057   5 C  s               135      6.442257   4 C  s         
   264     -6.336782   7 O  s               466     -5.727206  14 H  s         
   399     -5.367818  10 N  s               356      5.224562   9 N  s         
   228      4.636397   6 C  px              100      4.124549   3 C  py        

 Vector   75  Occ=0.000000D+00  E= 2.653485D-01
              MO Center=  1.2D+00,  7.6D-02,  3.1D-06, r^2= 2.3D+01
   Bfn.  Coefficient  Atom+Function         Bfn.  Coefficient  Atom+Function  
  ----- ------------  ---------------      ----- ------------  ---------------
    92     10.727379   3 C  s                 6     -7.389327   1 C  s         
   475      7.410112  15 H  s               484      7.410157  16 H  s         
   100     -6.724213   3 C  py              135     -6.383107   4 C  s         
   143     -6.078252   4 C  py               48     -5.769653   2 C  s         
     5     -5.227933   1 C  s                91     -4.630071   3 C  s         

 Vector   76  Occ=0.000000D+00  E= 2.702677D-01
              MO Center=  1.1D+00, -5.0D-02, -1.5D-06, r^2= 2.2D+01
   Bfn.  Coefficient  Atom+Function         Bfn.  Coefficient  Atom+Function  
  ----- ------------  ---------------      ----- ------------  ---------------
   399     18.102016  10 N  s               264     11.316062   7 O  s         
    92    -10.252476   3 C  s                 5     -8.934933   1 C  s         
    48     -8.399423   2 C  s               310      8.233227   8 O  s         
    49     -7.192674   2 C  s               439      6.471755  11 H  s         
     6      6.343904   1 C  s               398     -6.108802  10 N  s         

 Vector   77  Occ=0.000000D+00  E= 2.767082D-01
              MO Center=  8.1D-01, -1.0D-01,  1.3D-06, r^2= 2.5D+01
   Bfn.  Coefficient  Atom+Function         Bfn.  Coefficient  Atom+Function  
  ----- ------------  ---------------      ----- ------------  ---------------
    49     20.722770   2 C  s                92    -11.953405   3 C  s         
   264     -7.963445   7 O  s                 6     -7.879938   1 C  s         
   511     -7.553579  19 H  s               310      7.297589   8 O  s         
   520      6.824320  20 H  s               178     -6.062940   5 C  s         
   355      5.873338   9 N  s               356     -5.291097   9 N  s         

 Vector   78  Occ=0.000000D+00  E= 2.810509D-01
              MO Center= -6.1D-01, -7.5D-01,  1.3D-05, r^2= 2.0D+01
   Bfn.  Coefficient  Atom+Function         Bfn.  Coefficient  Atom+Function  
  ----- ------------  ---------------      ----- ------------  ---------------
   159      9.270205   4 C  dxz             161     -5.295455   4 C  dyz       
   493     -5.038814  17 H  s               502      5.038757  18 H  s         
   187      4.546482   5 C  pz              230      4.321173   6 C  pz        
   118      4.274385   3 C  dyz             202      3.871318   5 C  dxz       
   529     -3.733254  21 H  s               538      3.733035  22 H  s         

 Vector   79  Occ=0.000000D+00  E= 2.851542D-01
              MO Center= -6.4D-02, -7.1D-01, -9.0D-06, r^2= 1.5D+01
   Bfn.  Coefficient  Atom+Function         Bfn.  Coefficient  Atom+Function  
  ----- ------------  ---------------      ----- ------------  ---------------
   399     13.613262  10 N  s               466    -11.640037  14 H  s         
    92     -7.711048   3 C  s               520     -6.482686  20 H  s         
   229      4.323098   6 C  py              264      4.251459   7 O  s         
   178      4.198528   5 C  s               471     -3.461673  14 H  py        
    56     -3.089870   2 C  px               49     -2.907361   2 C  s         

 Vector   80  Occ=0.000000D+00  E= 2.913489D-01
              MO Center= -6.3D-01, -9.6D-01, -2.9D-06, r^2= 1.9D+01
   Bfn.  Coefficient  Atom+Function         Bfn.  Coefficient  Atom+Function  
  ----- ------------  ---------------      ----- ------------  ---------------
   356     12.547878   9 N  s               466     11.792837  14 H  s         
   511    -10.266125  19 H  s               439      8.946549  11 H  s         
    56     -7.313714   2 C  px              264     -7.117623   7 O  s         
   310      6.483266   8 O  s               114     -5.770576   3 C  dxx       
    49      5.618315   2 C  s                48     -5.521258   2 C  s         

 Vector   81  Occ=0.000000D+00  E= 2.958753D-01
              MO Center=  1.7D+00, -3.7D-01,  1.8D-05, r^2= 2.3D+01
   Bfn.  Coefficient  Atom+Function         Bfn.  Coefficient  Atom+Function  
  ----- ------------  ---------------      ----- ------------  ---------------
   448     12.248461  12 H  s               457    -12.248110  13 H  s         
    15     -8.998031   1 C  pz               32     -7.466922   1 C  dyz       
   101     -4.316893   3 C  pz              475      4.193251  15 H  s         
   484     -4.193513  16 H  s               116      3.866618   3 C  dxz       
   159      3.346325   4 C  dxz              30     -3.217406   1 C  dxz       

 Vector   82  Occ=0.000000D+00  E= 2.979185D-01
              MO Center=  6.4D-01, -3.4D-01, -2.2D-05, r^2= 2.2D+01
   Bfn.  Coefficient  Atom+Function         Bfn.  Coefficient  Atom+Function  
  ----- ------------  ---------------      ----- ------------  ---------------
   178     20.828662   5 C  s               310    -10.623019   8 O  s         
   439    -10.274462  11 H  s                92     -9.582124   3 C  s         
   356     -9.368420   9 N  s                14     -9.128579   1 C  py        
   135     -8.669886   4 C  s               399      7.902870  10 N  s         
    48      6.570133   2 C  s                 5      5.179111   1 C  s         

 Vector   83  Occ=0.000000D+00  E= 3.066293D-01
              MO Center= -1.3D+00, -6.5D-01,  2.6D-05, r^2= 1.4D+01
   Bfn.  Coefficient  Atom+Function         Bfn.  Coefficient  Atom+Function  
  ----- ------------  ---------------      ----- ------------  ---------------
   493     16.004991  17 H  s               502    -16.004077  18 H  s         
   144    -12.008405   4 C  pz              161      5.531346   4 C  dyz       
    32     -3.170739   1 C  dyz             247      2.574563   6 C  dyz       
   499     -2.436563  17 H  pz              508     -2.436399  18 H  pz        
   448      2.398000  12 H  s               457     -2.396991  13 H  s         

 Vector   84  Occ=0.000000D+00  E= 3.085880D-01
              MO Center=  8.0D-03, -4.1D-02, -2.5D-05, r^2= 2.3D+01
   Bfn.  Coefficient  Atom+Function         Bfn.  Coefficient  Atom+Function  
  ----- ------------  ---------------      ----- ------------  ---------------
   356     17.496734   9 N  s               439    -12.081962  11 H  s         
    92     11.302099   3 C  s               135    -11.208515   4 C  s         
    48     11.103290   2 C  s                 5      9.448200   1 C  s         
    14     -8.290891   1 C  py               56      7.717470   2 C  px        
[...]
 ------------------------------------------------------------------------
 For more information see the NWChem manual at https://nwchemgit.github.io


 For further details see manual section:                                                                                                                                                                                                                                                                
 tddft_davidson: exceeded maxiter                   0
 ------------------------------------------------------------------------
 ------------------------------------------------------------------------
  current input line : 
     0: 
 ------------------------------------------------------------------------
 ------------------------------------------------------------------------
 This type of error is most commonly associated with calculations not reaching convergence criteria
 ------------------------------------------------------------------------
 For more information see the NWChem manual at https://nwchemgit.github.io


 For further details see manual section:                                                                                                                                                                                                                                                                
 tddft_davidson: exceeded maxiter                   0
 ------------------------------------------------------------------------
 ------------------------------------------------------------------------
  current input line : 
     0: 
 ------------------------------------------------------------------------
 ------------------------------------------------------------------------
 This type of error is most commonly associated with calculations not reaching convergence criteria
 ------------------------------------------------------------------------
 For more information see the NWChem manual at https://nwchemgit.github.io


 For further details see manual section:                                                                                                                                                                                                                                                                
 tddft_davidson: exceeded maxiter                   0
 ------------------------------------------------------------------------
 ------------------------------------------------------------------------
  current input line : 
     0: 
 ------------------------------------------------------------------------
 ------------------------------------------------------------------------
 This type of error is most commonly associated with calculations not reaching convergence criteria
 ------------------------------------------------------------------------
 For more information see the NWChem manual at https://nwchemgit.github.io


 For further details see manual section:                                                                                                                                                                                                                                                                
 tddft_davidson: exceeded maxiter                   0
 ------------------------------------------------------------------------
 ------------------------------------------------------------------------
  current input line : 
     0: 
 ------------------------------------------------------------------------
 ------------------------------------------------------------------------
 This type of error is most commonly associated with calculations not reaching convergence criteria
 ------------------------------------------------------------------------
 For more information see the NWChem manual at https://nwchemgit.github.io


 For further details see manual section:                                                                                                                                                                                                                                                                
 tddft_davidson: exceeded maxiter                   0
 ------------------------------------------------------------------------
 ------------------------------------------------------------------------
  current input line : 
     0: 
 ------------------------------------------------------------------------
 ------------------------------------------------------------------------
 This type of error is most commonly associated with calculations not reaching convergence criteria
 ------------------------------------------------------------------------
 For more information see the NWChem manual at https://nwchemgit.github.io


 For further details see manual section:                                                                                                                                                                                                                                                                
 tddft_davidson: exceeded maxiter                   0
 ------------------------------------------------------------------------
 ------------------------------------------------------------------------
  current input line : 
     0: 
 ------------------------------------------------------------------------
 ------------------------------------------------------------------------
 This type of error is most commonly associated with calculations not reaching convergence criteria
 ------------------------------------------------------------------------
 For more information see the NWChem manual at https://nwchemgit.github.io


 For further details see manual section:                                                                                                                                                                                                                                                                
 tddft_davidson: exceeded maxiter                   0
 ------------------------------------------------------------------------
 ------------------------------------------------------------------------
  current input line : 
     0: 
 ------------------------------------------------------------------------
 ------------------------------------------------------------------------
 This type of error is most commonly associated with calculations not reaching convergence criteria
 ------------------------------------------------------------------------
 For more information see the NWChem manual at https://nwchemgit.github.io


 For further details see manual section:                                                                                                                                                                                                                                                                
 tddft_davidson: exceeded maxiter                   0
 ------------------------------------------------------------------------
 ------------------------------------------------------------------------
  current input line : 
     0: 
 ------------------------------------------------------------------------
 ------------------------------------------------------------------------
 This type of error is most commonly associated with calculations not reaching convergence criteria
 ------------------------------------------------------------------------
 For more information see the NWChem manual at https://nwchemgit.github.io


 For further details see manual section:                                                                                                                                                                                                                                                                
 tddft_davidson: exceeded maxiter                   0
 ------------------------------------------------------------------------
 ------------------------------------------------------------------------
  current input line : 
     0: 
 ------------------------------------------------------------------------
 ------------------------------------------------------------------------
 This type of error is most commonly associated with calculations not reaching convergence criteria
 ------------------------------------------------------------------------
 For more information see the NWChem manual at https://nwchemgit.github.io


 For further details see manual section:                                                                                                                                                                                                                                                                
 tddft_davidson: exceeded maxiter                   0
 ------------------------------------------------------------------------
 ------------------------------------------------------------------------
  current input line : 
     0: 
 ------------------------------------------------------------------------
 ------------------------------------------------------------------------
 This type of error is most commonly associated with calculations not reaching convergence criteria
 ------------------------------------------------------------------------
 For more information see the NWChem manual at https://nwchemgit.github.io


 For further details see manual section:                                                                                                                                                                                                                                                                
 tddft_davidson: exceeded maxiter                   0
 ------------------------------------------------------------------------
 ------------------------------------------------------------------------
  current input line : 
     0: 
 ------------------------------------------------------------------------
 ------------------------------------------------------------------------
 This type of error is most commonly associated with calculations not reaching convergence criteria
 ------------------------------------------------------------------------
 For more information see the NWChem manual at https://nwchemgit.github.io


 For further details see manual section:                                                                                                                                                                                                                                                                
 tddft_davidson: exceeded maxiter                   0
 ------------------------------------------------------------------------
 ------------------------------------------------------------------------
  current input line : 
     0: 
 ------------------------------------------------------------------------
 ------------------------------------------------------------------------
 This type of error is most commonly associated with calculations not reaching convergence criteria
 ------------------------------------------------------------------------
 For more information see the NWChem manual at https://nwchemgit.github.io


 For further details see manual section:                                                                                                                                                                                                                                                                
 tddft_davidson: exceeded maxiter                   0
 ------------------------------------------------------------------------
 ------------------------------------------------------------------------
  current input line : 
     0: 
 ------------------------------------------------------------------------
 ------------------------------------------------------------------------
 This type of error is most commonly associated with calculations not reaching convergence criteria
 ------------------------------------------------------------------------
 For more information see the NWChem manual at https://nwchemgit.github.io


 For further details see manual section:                                                                                                                                                                                                                                                                
 tddft_davidson: exceeded maxiter                   0
 ------------------------------------------------------------------------
 ------------------------------------------------------------------------
  current input line : 
     0: 
 ------------------------------------------------------------------------
 ------------------------------------------------------------------------
 This type of error is most commonly associated with calculations not reaching convergence criteria
 ------------------------------------------------------------------------
 For more information see the NWChem manual at https://nwchemgit.github.io


 For further details see manual section:                                                                                                                                                                                                                                                                
 tddft_davidson: exceeded maxiter                   0
 ------------------------------------------------------------------------
 ------------------------------------------------------------------------
  current input line : 
     0: 
 ------------------------------------------------------------------------
 ------------------------------------------------------------------------
 This type of error is most commonly associated with calculations not reaching convergence criteria
 ------------------------------------------------------------------------
 For more information see the NWChem manual at https://nwchemgit.github.io


 For further details see manual section:                                                                                                                                                                                                                                                                
 tddft_davidson: exceeded maxiter                   0
 ------------------------------------------------------------------------
 ------------------------------------------------------------------------
  current input line : 
     0: 
 ------------------------------------------------------------------------
 ------------------------------------------------------------------------
 This type of error is most commonly associated with calculations not reaching convergence criteria
 ------------------------------------------------------------------------
 For more information see the NWChem manual at https://nwchemgit.github.io


 For further details see manual section:                                                                                                                                                                                                                                                                
 tddft_davidson: exceeded maxiter                   0
 ------------------------------------------------------------------------
 ------------------------------------------------------------------------
  current input line : 
     0: 
 ------------------------------------------------------------------------
 ------------------------------------------------------------------------
 This type of error is most commonly associated with calculations not reaching convergence criteria
 ------------------------------------------------------------------------
 For more information see the NWChem manual at https://nwchemgit.github.io


 For further details see manual section:                                                                                                                                                                                                                                                                
 tddft_davidson: exceeded maxiter                   0
 ------------------------------------------------------------------------
 ------------------------------------------------------------------------
  current input line : 
     0: 
 ------------------------------------------------------------------------
 ------------------------------------------------------------------------
 This type of error is most commonly associated with calculations not reaching convergence criteria
 ------------------------------------------------------------------------
 For more information see the NWChem manual at https://nwchemgit.github.io


 For further details see manual section:                                                                                                                                                                                                                                                                
 tddft_davidson: exceeded maxiter                   0
 ------------------------------------------------------------------------
 ------------------------------------------------------------------------
  current input line : 
     0: 
 ------------------------------------------------------------------------
 ------------------------------------------------------------------------
 This type of error is most commonly associated with calculations not reaching convergence criteria
 ------------------------------------------------------------------------
 For more information see the NWChem manual at https://nwchemgit.github.io


 For further details see manual section:                                                                                                                                                                                                                                                                
 tddft_davidson: exceeded maxiter                   0
 ------------------------------------------------------------------------
 ------------------------------------------------------------------------
  current input line : 
     0: 
 ------------------------------------------------------------------------
 ------------------------------------------------------------------------
 This type of error is most commonly associated with calculations not reaching convergence criteria
 ------------------------------------------------------------------------
 For more information see the NWChem manual at https://nwchemgit.github.io


 For further details see manual section:                                                                                                                                                                                                                                                                
 tddft_davidson: exceeded maxiter                   0
 ------------------------------------------------------------------------
 ------------------------------------------------------------------------
  current input line : 
     0: 
 ------------------------------------------------------------------------
 ------------------------------------------------------------------------
 This type of error is most commonly associated with calculations not reaching convergence criteria
 ------------------------------------------------------------------------
 For more information see the NWChem manual at https://nwchemgit.github.io


 For further details see manual section:                                                                                                                                                                                                                                                                
