 argument  1 = /home/aditisingh4812/nw_chem/nwchem-run/nwchem-run/tddft/closed/lcwpbe/geom-MOL/dimethylaniline.nw
                                         
                                         


             Northwest Computational Chemistry Package (NWChem) 7.2.3
             --------------------------------------------------------


                    Environmental Molecular Sciences Laboratory
                       Pacific Northwest National Laboratory
                                Richland, WA 99352

                              Copyright (c) 1994-2022
                       Pacific Northwest National Laboratory
                            Battelle Memorial Institute

             NWChem is an open-source computational chemistry package
                        distributed under the terms of the
                      Educational Community License (ECL) 2.0
             A copy of the license is included with this distribution
                              in the LICENSE.TXT file

                                  ACKNOWLEDGMENT
                                  --------------

            This software and its documentation were developed at the
            EMSL at Pacific Northwest National Laboratory, a multiprogram
            national laboratory, operated for the U.S. Department of Energy
            by Battelle under Contract Number DE-AC05-76RL01830. Support
            for this work was provided by the Department of Energy Office
            of Biological and Environmental Research, Office of Basic
            Energy Sciences, and the Office of Advanced Scientific Computing.


           Job information
           ---------------

    hostname        = p20
    program         = /home/aditisingh4812/nw_chem/nwchem-7.2.3-release.revision-d690e065-srconly.2024-08-27/nwchem-7.2.3/bin/LINUX64/nwchem
    date            = Tue Apr  8 09:07:29 2025

    compiled        = Mon_Apr_07_18:51:54_2025
    source          = /home/aditisingh4812/nw_chem/nwchem-7.2.3-release.revision-d690e065-srconly.2024-08-27/nwchem-7.2.3
    nwchem branch   = 7.2.3
    nwchem revision = d690e065
    ga revision     = 5.8.0
    use scalapack   = F
    input           = /home/aditisingh4812/nw_chem/nwchem-run/nwchem-run/tddft/closed/lcwpbe/geom-MOL/dimethylaniline.nw
    prefix          = dimethylaniline.
    data base       = ./dimethylaniline.db
    status          = startup
    nproc           =       48
    time left       =     -1s



           Memory information
           ------------------

    heap     = ********** doubles = 100000.0 Mbytes
    stack    = ********** doubles = 100000.0 Mbytes
    global   = ********** doubles = 100000.0 Mbytes (distinct from heap & stack)
    total    = ********** doubles = 300000.0 Mbytes
    verify   = yes
    hardfail = no 


           Directory information
           ---------------------

  0 permanent = .
  0 scratch   = .




                                NWChem Input Module
                                -------------------



 Scaling coordinates for geometry "geometry" by  1.889725989
 (inverse scale =  0.529177249)



                             Geometry "geometry" -> ""
                             -------------------------

 Output coordinates in angstroms (scale by  1.889725989 to convert to a.u.)

  No.       Tag          Charge          X              Y              Z
 ---- ---------------- ---------- -------------- -------------- --------------
    1 C                    6.0000     0.00000000     0.00000000     2.64197489
    2 C                    6.0000     1.19437600     0.00000000     1.92997589
    3 C                    6.0000    -1.19437600     0.00000000     1.92997589
    4 C                    6.0000     1.20341600     0.00000000     0.54196189
    5 C                    6.0000    -1.20341600     0.00000000     0.54196189
    6 C                    6.0000     0.00000000     0.00000000    -0.18532411
    7 C                    6.0000     1.24959500     0.00000000    -2.27599611
    8 C                    6.0000    -1.24959500     0.00000000    -2.27599611
    9 N                    7.0000     0.00000000     0.00000000    -1.55759511
   10 H                    1.0000     2.14804800     0.00000000     0.02767389
   11 H                    1.0000    -2.14804800     0.00000000     0.02767389
   12 H                    1.0000     2.13613300     0.00000000     2.45604889
   13 H                    1.0000    -2.13613300     0.00000000     2.45604889
   14 H                    1.0000     0.00000000     0.00000000     3.71868189
   15 H                    1.0000     1.04258700     0.00000000    -3.34134711
   16 H                    1.0000    -1.04258700     0.00000000    -3.34134711
   17 H                    1.0000     1.85106500    -0.88349000    -2.04786811
   18 H                    1.0000     1.85106500     0.88349000    -2.04786811
   19 H                    1.0000    -1.85106500     0.88349000    -2.04786811
   20 H                    1.0000    -1.85106500    -0.88349000    -2.04786811

      Atomic Mass 
      ----------- 

      C                 12.000000
      N                 14.003070
      H                  1.007825


 Effective nuclear repulsion energy (a.u.)     431.0736219796

            Nuclear Dipole moment (a.u.) 
            ----------------------------
        X                 Y               Z
 ---------------- ---------------- ----------------
     0.0000000000     0.0000000000     0.0000000000


            XYZ format geometry
            -------------------
    20
 geometry
 C                     0.00000000     0.00000000     2.64197489
 C                     1.19437600     0.00000000     1.92997589
 C                    -1.19437600     0.00000000     1.92997589
 C                     1.20341600     0.00000000     0.54196189
 C                    -1.20341600     0.00000000     0.54196189
 C                     0.00000000     0.00000000    -0.18532411
 C                     1.24959500     0.00000000    -2.27599611
 C                    -1.24959500     0.00000000    -2.27599611
 N                     0.00000000     0.00000000    -1.55759511
 H                     2.14804800     0.00000000     0.02767389
 H                    -2.14804800     0.00000000     0.02767389
 H                     2.13613300     0.00000000     2.45604889
 H                    -2.13613300     0.00000000     2.45604889
 H                     0.00000000     0.00000000     3.71868189
 H                     1.04258700     0.00000000    -3.34134711
 H                    -1.04258700     0.00000000    -3.34134711
 H                     1.85106500    -0.88349000    -2.04786811
 H                     1.85106500     0.88349000    -2.04786811
 H                    -1.85106500     0.88349000    -2.04786811
 H                    -1.85106500    -0.88349000    -2.04786811

 ==============================================================================
                                internuclear distances
 ------------------------------------------------------------------------------
       center one      |      center two      | atomic units |  angstroms
 ------------------------------------------------------------------------------
    2 C                |   1 C                |     2.62765  |     1.39050
    3 C                |   1 C                |     2.62765  |     1.39050
    4 C                |   2 C                |     2.62302  |     1.38804
    5 C                |   3 C                |     2.62302  |     1.38804
    6 C                |   4 C                |     2.65717  |     1.40611
    6 C                |   5 C                |     2.65717  |     1.40611
    9 N                |   6 C                |     2.59322  |     1.37227
    9 N                |   7 C                |     2.72382  |     1.44138
    9 N                |   8 C                |     2.72382  |     1.44138
   10 H                |   4 C                |     2.03251  |     1.07556
   11 H                |   5 C                |     2.03251  |     1.07556
   12 H                |   2 C                |     2.03850  |     1.07873
   13 H                |   3 C                |     2.03850  |     1.07873
   14 H                |   1 C                |     2.03468  |     1.07671
   15 H                |   7 C                |     2.05088  |     1.08528
   16 H                |   8 C                |     2.05088  |     1.08528
   17 H                |   7 C                |     2.06522  |     1.09287
   18 H                |   7 C                |     2.06522  |     1.09287
   19 H                |   8 C                |     2.06522  |     1.09287
   20 H                |   8 C                |     2.06522  |     1.09287
 ------------------------------------------------------------------------------
                         number of included internuclear distances:         20
 ==============================================================================



 ==============================================================================
                                 internuclear angles
 ------------------------------------------------------------------------------
        center 1       |       center 2       |       center 3       |  degrees
 ------------------------------------------------------------------------------
    2 C                |   1 C                |   3 C                |   118.40
    2 C                |   1 C                |  14 H                |   120.80
    3 C                |   1 C                |  14 H                |   120.80
    1 C                |   2 C                |   4 C                |   121.17
    1 C                |   2 C                |  12 H                |   120.01
    4 C                |   2 C                |  12 H                |   118.81
    1 C                |   3 C                |   5 C                |   121.17
    1 C                |   3 C                |  13 H                |   120.01
    5 C                |   3 C                |  13 H                |   118.81
    2 C                |   4 C                |   6 C                |   120.77
    2 C                |   4 C                |  10 H                |   118.94
    6 C                |   4 C                |  10 H                |   120.29
    3 C                |   5 C                |   6 C                |   120.77
    3 C                |   5 C                |  11 H                |   118.94
    6 C                |   5 C                |  11 H                |   120.29
    4 C                |   6 C                |   5 C                |   117.71
    4 C                |   6 C                |   9 N                |   121.15
    5 C                |   6 C                |   9 N                |   121.15
    9 N                |   7 C                |  15 H                |   108.90
    9 N                |   7 C                |  17 H                |   111.91
    9 N                |   7 C                |  18 H                |   111.91
   15 H                |   7 C                |  17 H                |   108.05
   15 H                |   7 C                |  18 H                |   108.05
   17 H                |   7 C                |  18 H                |   107.88
    9 N                |   8 C                |  16 H                |   108.90
    9 N                |   8 C                |  19 H                |   111.91
    9 N                |   8 C                |  20 H                |   111.91
   16 H                |   8 C                |  19 H                |   108.05
   16 H                |   8 C                |  20 H                |   108.05
   19 H                |   8 C                |  20 H                |   107.88
    6 C                |   9 N                |   7 C                |   119.89
    6 C                |   9 N                |   8 C                |   119.89
    7 C                |   9 N                |   8 C                |   120.21
 ------------------------------------------------------------------------------
                            number of included internuclear angles:         33
 ==============================================================================





 Summary of "ao basis" -> "" (cartesian)
 ------------------------------------------------------------------------------
       Tag                 Description            Shells   Functions and Types
 ---------------- ------------------------------  ------  ---------------------
 *                         def2-TZVPD                 on all atoms 


  pbe96 is a nonlocal functional; adding pw91lda local functional. 

                                 NWChem DFT Module
                                 -----------------


                      Basis "ao basis" -> "ao basis" (cartesian)
                      -----
  C (Carbon)
  ----------
            Exponent  Coefficients 
       -------------- ---------------------------------------------------------
  1 S  1.35753497E+04  0.000222
  1 S  2.03523337E+03  0.001723
  1 S  4.63225624E+02  0.008926
  1 S  1.31200196E+02  0.035728
  1 S  4.28530159E+01  0.110763
  1 S  1.55841858E+01  0.242956

  2 S  6.20671385E+00  0.414403
  2 S  2.57648965E+00  0.237450

  3 S  5.76963394E-01  1.000000

  4 S  2.29728314E-01  1.000000

  5 S  9.51644400E-02  1.000000

  6 S  4.84754014E-02  1.000000

  7 P  3.46972322E+01  0.005333
  7 P  7.95826228E+00  0.035864
  7 P  2.37808269E+00  0.142159
  7 P  8.14332082E-01  0.342705

  8 P  2.88875473E-01  1.000000

  9 P  1.00568237E-01  1.000000

 10 D  1.09700000E+00  1.000000

 11 D  3.18000000E-01  1.000000

 12 D  9.09853364E-02  1.000000

 13 F  7.61000000E-01  1.000000

  N (Nitrogen)
  ------------
            Exponent  Coefficients 
       -------------- ---------------------------------------------------------
  1 S  1.97308006E+04  0.000219
  1 S  2.95789587E+03  0.001696
  1 S  6.73221336E+02  0.008795
  1 S  1.90682495E+02  0.035359
  1 S  6.22954419E+01  0.110958
  1 S  2.26541612E+01  0.249830

  2 S  8.97914774E+00  0.406239
  2 S  3.68630024E+00  0.243382

  3 S  8.46600768E-01  1.000000

  4 S  3.36471338E-01  1.000000

  5 S  1.36476537E-01  1.000000

  6 S  6.84416058E-02  1.000000

  7 P  4.92003805E+01  0.005555
  7 P  1.13467905E+01  0.038052
  7 P  3.42739724E+00  0.149537
  7 P  1.17855251E+00  0.349493

  8 P  4.16422050E-01  1.000000

  9 P  1.42608260E-01  1.000000

 10 D  1.65400000E+00  1.000000

 11 D  4.69000000E-01  1.000000

 12 D  1.28296421E-01  1.000000

 13 F  1.09300000E+00  1.000000

  H (Hydrogen)
  ------------
            Exponent  Coefficients 
       -------------- ---------------------------------------------------------
  1 S  3.40613410E+01  0.006025
  1 S  5.12357460E+00  0.045021
  1 S  1.16466260E+00  0.201897

  2 S  3.27230410E-01  1.000000

  3 S  1.03072410E-01  1.000000

  4 P  8.00000000E-01  1.000000

  5 P  9.57741296E-02  1.000000



 Summary of "ao basis" -> "ao basis" (cartesian)
 ------------------------------------------------------------------------------
       Tag                 Description            Shells   Functions and Types
 ---------------- ------------------------------  ------  ---------------------
 C                         def2-TZVPD               13       43   6s3p3d1f
 N                         def2-TZVPD               13       43   6s3p3d1f
 H                         def2-TZVPD                5        9   3s2p




 Summary of "ao basis" -> "ao basis" (cartesian)
 ------------------------------------------------------------------------------
       Tag                 Description            Shells   Functions and Types
 ---------------- ------------------------------  ------  ---------------------
 C                         def2-TZVPD               13       43   6s3p3d1f
 N                         def2-TZVPD               13       43   6s3p3d1f
 H                         def2-TZVPD                5        9   3s2p


  int_init: cando_txs set to always be  F
  Caching 1-el integrals 

            General Information
            -------------------
          SCF calculation type: DFT
          Wavefunction type:  closed shell.
          No. of atoms     :    20
          No. of electrons :    66
           Alpha electrons :    33
            Beta electrons :    33
          Charge           :     0
          Spin multiplicity:     1
          Use of symmetry is: off; symmetry adaption is: off
          Maximum number of iterations:  50
          AO basis - number of functions:   486
                     number of shells:   172
          Convergence on energy requested:  1.00D-06
          Convergence on density requested:  1.00D-05
          Convergence on gradient requested:  5.00D-04

              XC Information
              --------------
                     Hartree-Fock (Exact) Exchange  1.000          
                     LC-wPBE(h)Exchange Functional  1.000          
            Perdew 1991 LDA Correlation Functional  1.000 local    
           PerdewBurkeErnz. Correlation Functional  1.000 non-local

           Range-Separation Parameters        
           ---------------------------
           Alpha           :  0.00
           Beta            :  1.00
           Gamma           :  0.27
           Short-Range HF  :     F

             Grid Information
             ----------------
          Grid used for XC integration:  xfine     
          Radial quadrature: Mura-Knowles        
          Angular quadrature: Lebedev. 
          Tag              B.-S. Rad. Rad. Pts. Rad. Cut. Ang. Pts.
          ---              ---------- --------- --------- ---------
          C                   0.70      100          16.0      1454
          N                   0.65      100          14.0      1454
          H                   0.35      100          17.0      1202
          Grid pruning is: on 
          Number of quadrature shells:  2000
          Spatial weights used:  Erf1

          Convergence Information
          -----------------------
          Convergence aids based upon iterative change in 
          total energy or number of iterations. 
          Levelshifting, if invoked, occurs when the 
          HOMO/LUMO gap drops below (HL_TOL):  1.00D-02
          DIIS, if invoked, will attempt to extrapolate 
          using up to (NFOCK): 10 stored Fock matrices.

                    Damping( 0%)  Levelshifting(0.5)       DIIS
                  --------------- ------------------- ---------------
          dE  on:    start            ASAP                start   
          dE off:    2 iters         50 iters            50 iters 


      Screening Tolerance Information
      -------------------------------
          Density screening/tol_rho:  1.00D-10
          AO Gaussian exp screening on grid/accAOfunc:  14
          CD Gaussian exp screening on grid/accCDfunc:  20
          XC Gaussian exp screening on grid/accXCfunc:  20
          Schwarz screening/accCoul:  1.00D-08

  
  CAM type calculations without CDFIT are
  only available with the direct option.
  Forcing Direct SCF
  

 WARNING : Found    13 linear dependencies 
 S eigenvalue threshold:     1.00000E-05
 Smallest S eigenvalue :     1.80528E-08
 Largest  S eigenvalue :     8.00892E-06


 !! The overlap matrix has  13 vectors deemed linearly dependent with
    eigenvalues:
 1.81D-08 4.55D-07 6.01D-07 8.59D-07 1.03D-06 1.31D-06 1.68D-06 2.05D-06
 2.24D-06 4.65D-06 4.66D-06 6.86D-06 8.01D-06


      Superposition of Atomic Density Guess
      -------------------------------------

 Sum of atomic energies:        -361.18010342

      Non-variational initial energy
      ------------------------------

 Total energy =    -368.020969
 1-e energy   =   -1338.649708
 2-e energy   =     539.555117
 HOMO         =      -0.217429
 LUMO         =      -0.016910

  WARNING: movecs_in_org=atomic not equal to movecs_in=./dimethylaniline.movecs
   Time after variat. SCF:     24.4
   Time prior to 1st pass:     24.4

 Grid_pts file          = ./dimethylaniline.gridpts.00
 Record size in doubles =  12289        No. of grid_pts per rec  =   3070
 Max. records in memory =     23        Max. recs in file   =  21109390

 Grid integrated density:      65.896909105010
 Requested integration accuracy:   0.10E-07

           Memory utilization after 1st SCF pass: 
           Heap Space remaining (MW):     7864.16          7864157666
          Stack Space remaining (MW):    13107.20         13107196972

   convergence    iter        energy       DeltaE   RMS-Dens  Diis-err    time
 ---------------- ----- ----------------- --------- --------- ---------  ------
 d= 0,ls=0.0,diis     1   -363.3470039751 -7.94D+02  2.20D+02  8.55D+03   104.0
 Grid integrated density:      66.000018521872
 Requested integration accuracy:   0.10E-07
 d= 0,ls=0.0,diis     2   -347.4535710544  1.59D+01  2.08D+02  8.62D+01   173.6
 Grid integrated density:      66.000017269350
 Requested integration accuracy:   0.10E-07
 d= 0,ls=0.0,diis     3   -344.9350131490  2.52D+00  4.11D+01  8.73D+01   244.9
 Grid integrated density:      66.000005263721
 Requested integration accuracy:   0.10E-07
 d= 0,ls=0.5,diis     4   -323.1643540933  2.18D+01  7.49D+00  2.23D+02   314.0
 Grid integrated density:      66.000008024732
 Requested integration accuracy:   0.10E-07
 d= 0,ls=0.5,diis     5   -358.3146156289 -3.52D+01  2.05D+01  4.18D+01   383.0
 Grid integrated density:      66.000004635030
 Requested integration accuracy:   0.10E-07
 d= 0,ls=0.5,diis     6   -361.9753324668 -3.66D+00  1.92D+01  1.66D+01   452.5
 Grid integrated density:      66.000001567792
 Requested integration accuracy:   0.10E-07
 d= 0,ls=0.5,diis     7   -364.4662137882 -2.49D+00  4.82D+00  4.06D+00   519.7
 Grid integrated density:      66.000001131785
 Requested integration accuracy:   0.10E-07
 d= 0,ls=0.5,diis     8   -365.3093789067 -8.43D-01  9.40D-01  9.32D-01   585.2
 Grid integrated density:      66.000000924567
 Requested integration accuracy:   0.10E-07
 d= 0,ls=0.5,diis     9   -365.6744320742 -3.65D-01  1.70D-01  2.98D-01   648.9
 Grid integrated density:      66.000000703371
 Requested integration accuracy:   0.10E-07
 d= 0,ls=0.5,diis    10   -365.8368397182 -1.62D-01  4.35D-02  1.98D-01   710.0
 Grid integrated density:      66.000000915793
 Requested integration accuracy:   0.10E-07
 d= 0,ls=0.5,diis    11   -365.9262627032 -8.94D-02  1.61D-02  1.01D-01   771.9
 Grid integrated density:      66.000000674297
 Requested integration accuracy:   0.10E-07
  Resetting Diis
 d= 0,ls=0.5,diis    12   -365.9729765351 -4.67D-02  6.38D-03  2.59D-02   833.0
 Grid integrated density:      65.999999254547
 Requested integration accuracy:   0.10E-07
 d= 0,ls=0.5,diis    13   -365.9868895052 -1.39D-02  2.88D-03  1.50D-02   894.7
 Grid integrated density:      65.999999267258
 Requested integration accuracy:   0.10E-07
 d= 0,ls=0.5,diis    14   -365.9924201832 -5.53D-03  1.61D-03  5.70D-03   957.6
 Grid integrated density:      65.999999267961
 Requested integration accuracy:   0.10E-07
 d= 0,ls=0.5,diis    15   -365.9950191318 -2.60D-03  1.20D-03  2.80D-03  1020.0
 Grid integrated density:      65.999999268704
 Requested integration accuracy:   0.10E-07
 d= 0,ls=0.5,diis    16   -365.9967139758 -1.69D-03  7.19D-04  1.14D-03  1082.8
 Grid integrated density:      65.999999269907
 Requested integration accuracy:   0.10E-07
 d= 0,ls=0.5,diis    17   -365.9974226946 -7.09D-04  4.53D-04  4.30D-04  1145.7
 Grid integrated density:      65.999999270496
 Requested integration accuracy:   0.10E-07
 d= 0,ls=0.5,diis    18   -365.9977058833 -2.83D-04  2.96D-04  1.61D-04  1209.1
 Grid integrated density:      65.999999271032
 Requested integration accuracy:   0.10E-07
 d= 0,ls=0.5,diis    19   -365.9978159315 -1.10D-04  1.99D-04  6.09D-05  1272.9
 Grid integrated density:      65.999999271395
 Requested integration accuracy:   0.10E-07
 d= 0,ls=0.5,diis    20   -365.9978589352 -4.30D-05  1.31D-04  2.29D-05  1335.8
 Grid integrated density:      65.999999271503
 Requested integration accuracy:   0.10E-07
 d= 0,ls=0.5,diis    21   -365.9978752937 -1.64D-05  8.68D-05  8.58D-06  1399.0
 Grid integrated density:      65.999999271502
 Requested integration accuracy:   0.10E-07
 d= 0,ls=0.5,diis    22   -365.9978814867 -6.19D-06  5.74D-05  3.33D-06  1462.8
 Grid integrated density:      65.999999271515
 Requested integration accuracy:   0.10E-07
 d= 0,ls=0.5,diis    23   -365.9978838798 -2.39D-06  3.75D-05  1.26D-06  1527.7
 Grid integrated density:      65.999999271506
 Requested integration accuracy:   0.10E-07
 d= 0,ls=0.5,diis    24   -365.9978848035 -9.24D-07  2.42D-05  4.83D-07  1590.5
 Grid integrated density:      65.999999271504
 Requested integration accuracy:   0.10E-07
 d= 0,ls=0.5,diis    25   -365.9978851595 -3.56D-07  1.57D-05  1.84D-07  1653.7
 Grid integrated density:      65.999999271500
 Requested integration accuracy:   0.10E-07
 d= 0,ls=0.5,diis    26   -365.9978852965 -1.37D-07  1.00D-05  7.19D-08  1715.6
 Grid integrated density:      65.999999271500
 Requested integration accuracy:   0.10E-07


         Total DFT energy =     -365.997885349076
      One electron energy =    -1347.486335487188
           Coulomb energy =      604.580427876830
    Exchange-Corr. energy =      -54.165599718288
 Nuclear repulsion energy =      431.073621979570

 Numeric. integr. density =       65.999999271500

     Total iterative time =   1754.3s



                       DFT Final Molecular Orbital Analysis
                       ------------------------------------

 Vector    1  Occ=2.000000D+00  E=-1.415450D+01
              MO Center= -1.4D-12,  4.8D-09, -1.6D+00, r^2= 2.0D-02
   Bfn.  Coefficient  Atom+Function         Bfn.  Coefficient  Atom+Function  
  ----- ------------  ---------------      ----- ------------  ---------------
   346      0.619056   9 N  s               345      0.449510   9 N  s         
   348     -0.108842   9 N  s               347      0.099865   9 N  s         

 Vector    2  Occ=2.000000D+00  E=-1.007191D+01
              MO Center=  1.1D-09, -1.6D-09, -1.9D-01, r^2= 2.8D-02
   Bfn.  Coefficient  Atom+Function         Bfn.  Coefficient  Atom+Function  
  ----- ------------  ---------------      ----- ------------  ---------------
   217      0.599509   6 C  s               216      0.468109   6 C  s         
   218      0.101296   6 C  s               219     -0.099897   6 C  s         

 Vector    3  Occ=2.000000D+00  E=-1.006474D+01
              MO Center=  2.0D-02,  3.1D-10, -2.3D+00, r^2= 1.6D+00
   Bfn.  Coefficient  Atom+Function         Bfn.  Coefficient  Atom+Function  
  ----- ------------  ---------------      ----- ------------  ---------------
   260      0.427275   7 C  s               303     -0.420571   8 C  s         
   259      0.333643   7 C  s               302     -0.328408   8 C  s         
   262     -0.072937   7 C  s               261      0.072094   7 C  s         
   305      0.071785   8 C  s               304     -0.070965   8 C  s         

 Vector    4  Occ=2.000000D+00  E=-1.006474D+01
              MO Center= -2.0D-02,  3.3D-10, -2.3D+00, r^2= 1.6D+00
   Bfn.  Coefficient  Atom+Function         Bfn.  Coefficient  Atom+Function  
  ----- ------------  ---------------      ----- ------------  ---------------
   303      0.427272   8 C  s               260      0.420567   7 C  s         
   302      0.333646   8 C  s               259      0.328411   7 C  s         
   305     -0.073379   8 C  s               262     -0.072235   7 C  s         
   304      0.071988   8 C  s               261      0.070856   7 C  s         

 Vector    5  Occ=2.000000D+00  E=-1.002943D+01
              MO Center=  3.5D-01, -5.0D-10,  1.9D+00, r^2= 1.3D+00
   Bfn.  Coefficient  Atom+Function         Bfn.  Coefficient  Atom+Function  
  ----- ------------  ---------------      ----- ------------  ---------------
    45      0.482189   2 C  s                44      0.376520   2 C  s         
    88      0.355186   3 C  s                87      0.277352   3 C  s         
    46      0.082779   2 C  s                47     -0.081878   2 C  s         
    89      0.060960   3 C  s                90     -0.060239   3 C  s         

 Vector    6  Occ=2.000000D+00  E=-1.002943D+01
              MO Center= -3.5D-01, -7.9D-10,  1.9D+00, r^2= 1.3D+00
   Bfn.  Coefficient  Atom+Function         Bfn.  Coefficient  Atom+Function  
  ----- ------------  ---------------      ----- ------------  ---------------
    88      0.482283   3 C  s                87      0.376587   3 C  s         
    45     -0.355315   2 C  s                44     -0.277443   2 C  s         
    89      0.082849   3 C  s                90     -0.082131   3 C  s         
    46     -0.061054   2 C  s                47      0.060582   2 C  s         

 Vector    7  Occ=2.000000D+00  E=-1.002334D+01
              MO Center=  9.6D-01, -5.8D-11,  5.4D-01, r^2= 5.5D-01
   Bfn.  Coefficient  Atom+Function         Bfn.  Coefficient  Atom+Function  
  ----- ------------  ---------------      ----- ------------  ---------------
   131      0.568441   4 C  s               130      0.443901   4 C  s         
   174      0.188964   5 C  s               173      0.147566   5 C  s         
   132      0.097594   4 C  s               133     -0.096653   4 C  s         
   175      0.032519   5 C  s               176     -0.032508   5 C  s         

 Vector    8  Occ=2.000000D+00  E=-1.002334D+01
              MO Center= -9.6D-01,  1.9D-10,  5.4D-01, r^2= 5.5D-01
   Bfn.  Coefficient  Atom+Function         Bfn.  Coefficient  Atom+Function  
  ----- ------------  ---------------      ----- ------------  ---------------
   174      0.568429   5 C  s               173      0.443890   5 C  s         
   131     -0.188930   4 C  s               130     -0.147533   4 C  s         
   175      0.097534   5 C  s               176     -0.096369   5 C  s         
   132     -0.032341   4 C  s               133      0.031653   4 C  s         

 Vector    9  Occ=2.000000D+00  E=-1.001773D+01
              MO Center= -1.1D-07,  4.3D-11,  2.6D+00, r^2= 2.9D-02
   Bfn.  Coefficient  Atom+Function         Bfn.  Coefficient  Atom+Function  
  ----- ------------  ---------------      ----- ------------  ---------------
     2      0.599210   1 C  s                 1      0.467923   1 C  s         
     3      0.103026   1 C  s                 4     -0.102084   1 C  s         

 Vector   10  Occ=2.000000D+00  E=-1.027726D+00
              MO Center=  2.5D-07,  7.9D-07, -1.4D+00, r^2= 1.3D+00
   Bfn.  Coefficient  Atom+Function         Bfn.  Coefficient  Atom+Function  
  ----- ------------  ---------------      ----- ------------  ---------------
   348      0.314449   9 N  s               347      0.263535   9 N  s         
   346     -0.178456   9 N  s               218      0.136977   6 C  s         
   219      0.110390   6 C  s               262      0.099342   7 C  s         
   305      0.099343   8 C  s               261      0.095970   7 C  s         
   304      0.095969   8 C  s               217     -0.090336   6 C  s         

 Vector   11  Occ=2.000000D+00  E=-9.182859D-01
              MO Center=  3.8D-06, -1.3D-07,  1.1D+00, r^2= 3.0D+00
   Bfn.  Coefficient  Atom+Function         Bfn.  Coefficient  Atom+Function  
  ----- ------------  ---------------      ----- ------------  ---------------
    46      0.148598   2 C  s                89      0.148597   3 C  s         
     3      0.146071   1 C  s               132      0.138200   4 C  s         
   175      0.138199   5 C  s                47      0.121447   2 C  s         
    90      0.121446   3 C  s               218      0.116877   6 C  s         
     4      0.111390   1 C  s               219      0.110456   6 C  s         

 Vector   12  Occ=2.000000D+00  E=-8.300116D-01
              MO Center=  4.7D-06, -1.9D-07, -4.0D-01, r^2= 4.9D+00
   Bfn.  Coefficient  Atom+Function         Bfn.  Coefficient  Atom+Function  
  ----- ------------  ---------------      ----- ------------  ---------------
   262      0.170398   7 C  s               305     -0.170394   8 C  s         
   132      0.146477   4 C  s               175     -0.146479   5 C  s         
   133      0.143690   4 C  s               176     -0.143690   5 C  s         
   261      0.133306   7 C  s               304     -0.133305   8 C  s         
   351      0.116986   9 N  px               46      0.114582   2 C  s         

 Vector   13  Occ=2.000000D+00  E=-8.248074D-01
              MO Center= -4.5D-06, -3.8D-08,  3.0D-01, r^2= 5.1D+00
   Bfn.  Coefficient  Atom+Function         Bfn.  Coefficient  Atom+Function  
  ----- ------------  ---------------      ----- ------------  ---------------
   219      0.229555   6 C  s               218      0.193470   6 C  s         
     3     -0.176811   1 C  s                 4     -0.162379   1 C  s         
   353      0.128758   9 N  pz              262     -0.120472   7 C  s         
   305     -0.120476   8 C  s               217     -0.119069   6 C  s         
     2      0.109777   1 C  s                46     -0.104848   2 C  s         

 Vector   14  Occ=2.000000D+00  E=-8.040727D-01
              MO Center= -3.6D-07, -2.0D-07, -4.4D-01, r^2= 6.0D+00
   Bfn.  Coefficient  Atom+Function         Bfn.  Coefficient  Atom+Function  
  ----- ------------  ---------------      ----- ------------  ---------------
   262      0.194425   7 C  s               305     -0.194426   8 C  s         
   261      0.157218   7 C  s               304     -0.157217   8 C  s         
    46     -0.142134   2 C  s                89      0.142135   3 C  s         
    47     -0.132716   2 C  s                90      0.132717   3 C  s         
   132     -0.111360   4 C  s               175      0.111360   5 C  s         

 Vector   15  Occ=2.000000D+00  E=-7.421924D-01
              MO Center=  7.0D-08, -3.3D-07, -4.4D-01, r^2= 6.2D+00
   Bfn.  Coefficient  Atom+Function         Bfn.  Coefficient  Atom+Function  
  ----- ------------  ---------------      ----- ------------  ---------------
     4      0.156462   1 C  s               348      0.154538   9 N  s         
   262     -0.152626   7 C  s               305     -0.152627   8 C  s         
     3      0.147583   1 C  s               224     -0.144411   6 C  pz        
   261     -0.122707   7 C  s               304     -0.122707   8 C  s         
   133     -0.119469   4 C  s               176     -0.119469   5 C  s         

 Vector   16  Occ=2.000000D+00  E=-6.796368D-01
              MO Center= -7.4D-08, -2.0D-07,  8.9D-01, r^2= 4.6D+00
   Bfn.  Coefficient  Atom+Function         Bfn.  Coefficient  Atom+Function  
  ----- ------------  ---------------      ----- ------------  ---------------
    47      0.174641   2 C  s                90     -0.174641   3 C  s         
   133     -0.164464   4 C  s               176      0.164463   5 C  s         
   222     -0.164089   6 C  px               46      0.152194   2 C  s         
    89     -0.152194   3 C  s               132     -0.142417   4 C  s         
   175      0.142418   5 C  s                 7      0.141678   1 C  px        

 Vector   17  Occ=2.000000D+00  E=-6.556510D-01
              MO Center= -9.3D-09, -6.5D-07,  3.3D-01, r^2= 6.2D+00
   Bfn.  Coefficient  Atom+Function         Bfn.  Coefficient  Atom+Function  
  ----- ------------  ---------------      ----- ------------  ---------------
   219      0.190875   6 C  s               348     -0.157656   9 N  s         
     4      0.152686   1 C  s               218      0.146992   6 C  s         
     3      0.139201   1 C  s               136     -0.103950   4 C  px        
   179      0.103950   5 C  px               50     -0.099789   2 C  px        
    93      0.099789   3 C  px              347     -0.097381   9 N  s         

 Vector   18  Occ=2.000000D+00  E=-6.183915D-01
              MO Center=  1.8D-06, -6.9D-07, -1.7D-01, r^2= 5.8D+00
   Bfn.  Coefficient  Atom+Function         Bfn.  Coefficient  Atom+Function  
  ----- ------------  ---------------      ----- ------------  ---------------
   353      0.164865   9 N  pz              224     -0.142194   6 C  pz        
   408     -0.129692  12 H  s               417     -0.129697  13 H  s         
     5      0.125580   1 C  s               265      0.124863   7 C  px        
   308     -0.124863   8 C  px              136      0.117380   4 C  px        
   179     -0.117380   5 C  px              227     -0.112731   6 C  pz        

 Vector   19  Occ=2.000000D+00  E=-5.655025D-01
              MO Center=  3.6D-07, -6.2D-07, -8.2D-01, r^2= 5.6D+00
   Bfn.  Coefficient  Atom+Function         Bfn.  Coefficient  Atom+Function  
  ----- ------------  ---------------      ----- ------------  ---------------
   351      0.227562   9 N  px              245      0.162897   6 C  dxz       
   357      0.158213   9 N  px              267      0.139372   7 C  pz        
   310     -0.139373   8 C  pz              354      0.134436   9 N  px        
     7      0.124369   1 C  px               52      0.119787   2 C  pz        
    95     -0.119787   3 C  pz              222      0.116241   6 C  px        

 Vector   20  Occ=2.000000D+00  E=-5.567284D-01
              MO Center=  2.0D-06, -1.3D-05, -1.8D+00, r^2= 2.8D+00
   Bfn.  Coefficient  Atom+Function         Bfn.  Coefficient  Atom+Function  
  ----- ------------  ---------------      ----- ------------  ---------------
   352      0.205476   9 N  py              266      0.193245   7 C  py        
   309      0.193245   8 C  py              355      0.177618   9 N  py        
   272      0.147906   7 C  py              315      0.147906   8 C  py        
   269      0.136704   7 C  py              312      0.136703   8 C  py        
   223      0.102626   6 C  py              452     -0.102801  17 H  s         

 Vector   21  Occ=2.000000D+00  E=-5.557686D-01
              MO Center=  7.0D-07,  1.4D-05,  8.1D-01, r^2= 6.6D+00
   Bfn.  Coefficient  Atom+Function         Bfn.  Coefficient  Atom+Function  
  ----- ------------  ---------------      ----- ------------  ---------------
   248      0.212639   6 C  dzz             350     -0.202440   9 N  s         
     9      0.198262   1 C  pz              425      0.159512  14 H  s         
   353     -0.148702   9 N  pz              424      0.117738  14 H  s         
    47     -0.108628   2 C  s                90     -0.108629   3 C  s         
   263     -0.105566   7 C  s               306     -0.105566   8 C  s         

 Vector   22  Occ=2.000000D+00  E=-5.279008D-01
              MO Center=  2.3D-06,  1.2D-07,  4.3D-01, r^2= 7.4D+00
   Bfn.  Coefficient  Atom+Function         Bfn.  Coefficient  Atom+Function  
  ----- ------------  ---------------      ----- ------------  ---------------
   350     -0.232151   9 N  s               248      0.228325   6 C  dzz       
    50      0.143093   2 C  px               93     -0.143091   3 C  px        
   219      0.136477   6 C  s               407      0.131020  12 H  s         
   416      0.131018  13 H  s               218      0.125040   6 C  s         
   267     -0.115205   7 C  pz              310     -0.115205   8 C  pz        

 Vector   23  Occ=2.000000D+00  E=-4.987333D-01
              MO Center= -1.3D-06,  8.1D-07,  4.1D-01, r^2= 5.6D+00
   Bfn.  Coefficient  Atom+Function         Bfn.  Coefficient  Atom+Function  
  ----- ------------  ---------------      ----- ------------  ---------------
   222     -0.173828   6 C  px              136      0.165860   4 C  px        
   179      0.165861   5 C  px               50      0.163840   2 C  px        
    93      0.163840   3 C  px                7     -0.149009   1 C  px        
   228     -0.135677   6 C  px              225     -0.116987   6 C  px        
   267      0.114564   7 C  pz              310     -0.114563   8 C  pz        

 Vector   24  Occ=2.000000D+00  E=-4.979182D-01
              MO Center=  1.8D-06, -6.0D-06,  2.2D-01, r^2= 5.0D+00
   Bfn.  Coefficient  Atom+Function         Bfn.  Coefficient  Atom+Function  
  ----- ------------  ---------------      ----- ------------  ---------------
   138     -0.186198   4 C  pz              181      0.186197   5 C  pz        
    52      0.182840   2 C  pz               95     -0.182840   3 C  pz        
   435      0.183646  15 H  s               444     -0.183646  16 H  s         
   351     -0.175128   9 N  px              357     -0.149270   9 N  px        
    30     -0.129185   1 C  dxz             265      0.129734   7 C  px        

 Vector   25  Occ=2.000000D+00  E=-4.949516D-01
              MO Center= -9.4D-07,  4.6D-06, -2.2D+00, r^2= 3.6D+00
   Bfn.  Coefficient  Atom+Function         Bfn.  Coefficient  Atom+Function  
  ----- ------------  ---------------      ----- ------------  ---------------
   266      0.241350   7 C  py              309     -0.241350   8 C  py        
   272      0.228771   7 C  py              315     -0.228771   8 C  py        
   269      0.156825   7 C  py              312     -0.156826   8 C  py        
   452     -0.151867  17 H  s               461      0.151868  18 H  s         
   470     -0.151868  19 H  s               479      0.151867  20 H  s         

 Vector   26  Occ=2.000000D+00  E=-4.776994D-01
              MO Center=  5.7D-07,  4.4D-07, -1.1D+00, r^2= 6.1D+00
   Bfn.  Coefficient  Atom+Function         Bfn.  Coefficient  Atom+Function  
  ----- ------------  ---------------      ----- ------------  ---------------
   224      0.187839   6 C  pz              248     -0.185854   6 C  dzz       
   267      0.172933   7 C  pz              310      0.172933   8 C  pz        
   353     -0.163983   9 N  pz              434     -0.147677  15 H  s         
   443     -0.147677  16 H  s               350      0.131029   9 N  s         
   359     -0.128573   9 N  pz                9      0.113402   1 C  pz        

 Vector   27  Occ=2.000000D+00  E=-4.633437D-01
              MO Center= -1.6D-06,  1.2D-06, -1.5D+00, r^2= 6.1D+00
   Bfn.  Coefficient  Atom+Function         Bfn.  Coefficient  Atom+Function  
  ----- ------------  ---------------      ----- ------------  ---------------
   273      0.213330   7 C  pz              316     -0.213330   8 C  pz        
   265      0.161188   7 C  px              308      0.161188   8 C  px        
   267      0.154432   7 C  pz              310     -0.154433   8 C  pz        
   434     -0.149101  15 H  s               443      0.149102  16 H  s         
   271      0.147498   7 C  px              314      0.147497   8 C  px        

 Vector   28  Occ=2.000000D+00  E=-4.590980D-01
              MO Center=  1.7D-06, -5.8D-07,  7.2D-01, r^2= 4.0D+00
   Bfn.  Coefficient  Atom+Function         Bfn.  Coefficient  Atom+Function  
  ----- ------------  ---------------      ----- ------------  ---------------
   223      0.174764   6 C  py              137      0.154059   4 C  py        
   180      0.154058   5 C  py               51      0.147225   2 C  py        
    94      0.147225   3 C  py              226      0.145103   6 C  py        
     8      0.139783   1 C  py              140      0.133275   4 C  py        
   183      0.133275   5 C  py               54      0.126176   2 C  py        

 Vector   29  Occ=2.000000D+00  E=-4.285811D-01
              MO Center= -5.3D-06, -1.6D-09,  1.7D+00, r^2= 4.1D+00
   Bfn.  Coefficient  Atom+Function         Bfn.  Coefficient  Atom+Function  
  ----- ------------  ---------------      ----- ------------  ---------------
     9      0.215094   1 C  pz               52     -0.194741   2 C  pz        
    95     -0.194743   3 C  pz              138      0.186179   4 C  pz        
   181      0.186180   5 C  pz              425      0.180480  14 H  s         
    15      0.148545   1 C  pz               58     -0.145845   2 C  pz        
   101     -0.145847   3 C  pz               12      0.129050   1 C  pz        

 Vector   30  Occ=2.000000D+00  E=-4.073844D-01
              MO Center= -3.8D-06, -3.2D-08,  1.0D+00, r^2= 4.7D+00
   Bfn.  Coefficient  Atom+Function         Bfn.  Coefficient  Atom+Function  
  ----- ------------  ---------------      ----- ------------  ---------------
   222     -0.198793   6 C  px                7      0.196880   1 C  px        
    50     -0.172849   2 C  px               93     -0.172849   3 C  px        
   136      0.169846   4 C  px              179      0.169847   5 C  px        
   142      0.152881   4 C  px              185      0.152882   5 C  px        
    56     -0.145416   2 C  px               99     -0.145415   3 C  px        

 Vector   31  Occ=2.000000D+00  E=-3.721994D-01
              MO Center=  6.6D-07,  6.2D-07,  1.8D-01, r^2= 5.4D+00
   Bfn.  Coefficient  Atom+Function         Bfn.  Coefficient  Atom+Function  
  ----- ------------  ---------------      ----- ------------  ---------------
   352      0.218869   9 N  py                8     -0.194961   1 C  py        
   223      0.194801   6 C  py              355      0.190104   9 N  py        
    11     -0.169274   1 C  py              226      0.156324   6 C  py        
   272     -0.149437   7 C  py              315     -0.149434   8 C  py        
   358      0.141265   9 N  py               51     -0.129808   2 C  py        

 Vector   32  Occ=2.000000D+00  E=-3.303747D-01
              MO Center= -3.9D-06,  4.8D-07,  1.2D+00, r^2= 3.1D+00
   Bfn.  Coefficient  Atom+Function         Bfn.  Coefficient  Atom+Function  
  ----- ------------  ---------------      ----- ------------  ---------------
   137      0.216338   4 C  py              180     -0.216338   5 C  py        
    51      0.212703   2 C  py               94     -0.212704   3 C  py        
   140      0.187786   4 C  py              183     -0.187786   5 C  py        
    54      0.184528   2 C  py               97     -0.184529   3 C  py        
   143      0.137730   4 C  py              186     -0.137730   5 C  py        

 Vector   33  Occ=2.000000D+00  E=-2.671183D-01
              MO Center=  4.8D-06,  7.6D-05, -9.7D-02, r^2= 4.8D+00
   Bfn.  Coefficient  Atom+Function         Bfn.  Coefficient  Atom+Function  
  ----- ------------  ---------------      ----- ------------  ---------------
   352      0.304096   9 N  py              355      0.269854   9 N  py        
   358      0.227642   9 N  py                8      0.189639   1 C  py        
   272     -0.186790   7 C  py              315     -0.186797   8 C  py        
    11      0.171919   1 C  py              137     -0.154287   4 C  py        
   180     -0.154286   5 C  py              247     -0.145530   6 C  dyz       

 Vector   34  Occ=0.000000D+00  E= 4.750857D-02
              MO Center=  2.6D-06, -8.0D-05, -2.5D+00, r^2= 1.6D+01
   Bfn.  Coefficient  Atom+Function         Bfn.  Coefficient  Atom+Function  
  ----- ------------  ---------------      ----- ------------  ---------------
   350      7.543552   9 N  s               264     -4.856569   7 C  s         
   307     -4.856561   8 C  s               263      2.682495   7 C  s         
   306      2.682502   8 C  s               349      2.119887   9 N  s         
   248     -2.093512   6 C  dzz             435     -2.061472  15 H  s         
   444     -2.061449  16 H  s                49     -1.919995   2 C  s         

 Vector   35  Occ=0.000000D+00  E= 6.450393D-02
              MO Center= -2.1D-06,  2.3D-05,  1.2D+00, r^2= 4.5D+00
   Bfn.  Coefficient  Atom+Function         Bfn.  Coefficient  Atom+Function  
  ----- ------------  ---------------      ----- ------------  ---------------
   453      0.812757  17 H  s               462     -0.812661  18 H  s         
   471      0.812651  19 H  s               480     -0.812759  20 H  s         
   272      0.535878   7 C  py              315     -0.535876   8 C  py        
   287      0.239683   7 C  dxy             330      0.239682   8 C  dxy       
    54     -0.224139   2 C  py               97      0.224137   3 C  py        

 Vector   36  Occ=0.000000D+00  E= 6.897909D-02
              MO Center=  9.9D-08, -2.5D-05, -1.8D+00, r^2= 2.0D+01
   Bfn.  Coefficient  Atom+Function         Bfn.  Coefficient  Atom+Function  
  ----- ------------  ---------------      ----- ------------  ---------------
   264      5.786563   7 C  s               307     -5.786568   8 C  s         
   390      2.518325  10 H  s               399     -2.518310  11 H  s         
    49      2.174660   2 C  s                92     -2.174637   3 C  s         
   245      2.036394   6 C  dxz             228     -1.981576   6 C  px        
   374      1.679062   9 N  dxz             157     -1.507550   4 C  dxx       

 Vector   37  Occ=0.000000D+00  E= 7.199816D-02
              MO Center=  4.7D-07, -3.5D-06,  2.0D+00, r^2= 2.0D+01
   Bfn.  Coefficient  Atom+Function         Bfn.  Coefficient  Atom+Function  
  ----- ------------  ---------------      ----- ------------  ---------------
   350     -3.523266   9 N  s               221      3.238711   6 C  s         
     6     -2.877550   1 C  s                49     -2.527321   2 C  s         
    92     -2.527325   3 C  s               264      2.085472   7 C  s         
   307      2.085455   8 C  s                 5     -1.618777   1 C  s         
   435     -1.597493  15 H  s               444     -1.597502  16 H  s         

 Vector   38  Occ=0.000000D+00  E= 8.112190D-02
              MO Center= -1.1D-06, -1.4D-06,  1.1D+00, r^2= 5.0D+00
   Bfn.  Coefficient  Atom+Function         Bfn.  Coefficient  Atom+Function  
  ----- ------------  ---------------      ----- ------------  ---------------
   229     -0.304071   6 C  py               72      0.293814   2 C  dxy       
   115     -0.293815   3 C  dxy             223     -0.271578   6 C  py        
    11     -0.265913   1 C  py              226     -0.262754   6 C  py        
    32     -0.259761   1 C  dyz               8     -0.240950   1 C  py        
   453     -0.195252  17 H  s               462      0.195330  18 H  s         

 Vector   39  Occ=0.000000D+00  E= 9.074168D-02
              MO Center=  1.1D-05, -1.1D-07,  1.1D+00, r^2= 2.4D+01
   Bfn.  Coefficient  Atom+Function         Bfn.  Coefficient  Atom+Function  
  ----- ------------  ---------------      ----- ------------  ---------------
    49      6.632965   2 C  s                92     -6.632861   3 C  s         
   264     -4.094087   7 C  s               307      4.094081   8 C  s         
   435      2.733041  15 H  s               444     -2.733006  16 H  s         
    71     -1.712387   2 C  dxx             114      1.712391   3 C  dxx       
   453     -1.615689  17 H  s               462     -1.615684  18 H  s         

 Vector   40  Occ=0.000000D+00  E= 9.496802D-02
              MO Center= -1.4D-05,  8.3D-06,  7.5D-01, r^2= 2.4D+01
   Bfn.  Coefficient  Atom+Function         Bfn.  Coefficient  Atom+Function  
  ----- ------------  ---------------      ----- ------------  ---------------
     6      7.908081   1 C  s               135     -6.215647   4 C  s         
   178     -6.215736   5 C  s               221      4.669948   6 C  s         
   435     -4.615164  15 H  s               444     -4.615228  16 H  s         
   243      2.736997   6 C  dxx             273     -2.685178   7 C  pz        
   316     -2.685226   8 C  pz               33     -2.528587   1 C  dzz       

 Vector   41  Occ=0.000000D+00  E= 1.051170D-01
              MO Center= -1.6D-06, -9.6D-06, -4.5D-01, r^2= 1.4D+01
   Bfn.  Coefficient  Atom+Function         Bfn.  Coefficient  Atom+Function  
  ----- ------------  ---------------      ----- ------------  ---------------
   221     15.718040   6 C  s               426      3.867569  14 H  s         
     6      3.584670   1 C  s               248     -3.367823   6 C  dzz       
   246     -2.970636   6 C  dyy             135     -2.853974   4 C  s         
   178     -2.854041   5 C  s               230     -2.355502   6 C  pz        
    73      2.078357   2 C  dxz             116     -2.078331   3 C  dxz       

 Vector   42  Occ=0.000000D+00  E= 1.234754D-01
              MO Center=  3.3D-05, -1.8D-06, -2.0D-01, r^2= 2.4D+01
   Bfn.  Coefficient  Atom+Function         Bfn.  Coefficient  Atom+Function  
  ----- ------------  ---------------      ----- ------------  ---------------
     6     12.913681   1 C  s                49    -10.542041   2 C  s         
    92    -10.540547   3 C  s               435      9.463602  15 H  s         
   444      9.463186  16 H  s               390     -5.856311  10 H  s         
   399     -5.856404  11 H  s               273      5.233851   7 C  pz        
   316      5.233612   8 C  pz              135      4.332552   4 C  s         

 Vector   43  Occ=0.000000D+00  E= 1.238498D-01
              MO Center= -2.4D-05, -3.5D-06,  5.0D-01, r^2= 2.4D+01
   Bfn.  Coefficient  Atom+Function         Bfn.  Coefficient  Atom+Function  
  ----- ------------  ---------------      ----- ------------  ---------------
   135     13.459025   4 C  s               178    -13.459572   5 C  s         
    49     -9.355169   2 C  s                92      9.356716   3 C  s         
   264     -4.663108   7 C  s               307      4.662900   8 C  s         
   435      2.794931  15 H  s               444     -2.796508  16 H  s         
   453     -2.479716  17 H  s               462     -2.479673  18 H  s         

 Vector   44  Occ=0.000000D+00  E= 1.396652D-01
              MO Center=  9.7D-06,  6.4D-08, -2.0D+00, r^2= 1.2D+01
   Bfn.  Coefficient  Atom+Function         Bfn.  Coefficient  Atom+Function  
  ----- ------------  ---------------      ----- ------------  ---------------
   453      3.941791  17 H  s               462     -3.941732  18 H  s         
   471     -3.941684  19 H  s               480      3.941752  20 H  s         
   229     -2.253833   6 C  py              272      1.802187   7 C  py        
   315      1.802159   8 C  py              158     -1.582800   4 C  dxy       
   201      1.582798   5 C  dxy             290      1.498697   7 C  dyz       

 Vector   45  Occ=0.000000D+00  E= 1.456761D-01
              MO Center= -8.5D-06, -1.0D-05, -1.6D+00, r^2= 1.4D+01
   Bfn.  Coefficient  Atom+Function         Bfn.  Coefficient  Atom+Function  
  ----- ------------  ---------------      ----- ------------  ---------------
   453      9.210580  17 H  s               462     -9.210556  18 H  s         
   471      9.210552  19 H  s               480     -9.210607  20 H  s         
   272      5.856558   7 C  py              315     -5.856561   8 C  py        
   290      2.905196   7 C  dyz             333     -2.905201   8 C  dyz       
   287      2.653461   7 C  dxy             330      2.653460   8 C  dxy       

 Vector   46  Occ=0.000000D+00  E= 1.513699D-01
              MO Center=  1.8D-07, -1.5D-06, -4.1D-01, r^2= 2.0D+01
   Bfn.  Coefficient  Atom+Function         Bfn.  Coefficient  Atom+Function  
  ----- ------------  ---------------      ----- ------------  ---------------
    49     11.620720   2 C  s                92     11.620674   3 C  s         
   350    -11.086042   9 N  s               135    -10.529601   4 C  s         
   178    -10.529598   5 C  s               221      9.044441   6 C  s         
     6     -8.541055   1 C  s               263     -7.637781   7 C  s         
   306     -7.637808   8 C  s               426      7.490578  14 H  s         

 Vector   47  Occ=0.000000D+00  E= 1.534099D-01
              MO Center= -8.3D-06, -4.3D-06,  5.7D-01, r^2= 1.9D+01
   Bfn.  Coefficient  Atom+Function         Bfn.  Coefficient  Atom+Function  
  ----- ------------  ---------------      ----- ------------  ---------------
   408     11.564090  12 H  s               417     11.564294  13 H  s         
   135      8.663398   4 C  s               178      8.663352   5 C  s         
   221     -8.305914   6 C  s                 5     -8.176199   1 C  s         
     6      8.052681   1 C  s               426      6.385028  14 H  s         
    48     -5.820872   2 C  s                91     -5.820895   3 C  s         

 Vector   48  Occ=0.000000D+00  E= 1.614022D-01
              MO Center= -3.6D-07,  5.7D-06, -2.4D+00, r^2= 1.0D+01
   Bfn.  Coefficient  Atom+Function         Bfn.  Coefficient  Atom+Function  
  ----- ------------  ---------------      ----- ------------  ---------------
   453      5.746004  17 H  s               462     -5.745990  18 H  s         
   471     -5.745998  19 H  s               480      5.746015  20 H  s         
   272      5.426318   7 C  py              315      5.426323   8 C  py        
   229      1.669083   6 C  py              287      1.597170   7 C  dxy       
   330     -1.597173   8 C  dxy             161      1.244361   4 C  dyz       

 Vector   49  Occ=0.000000D+00  E= 1.759783D-01
              MO Center= -1.4D-06,  9.1D-06, -8.3D-01, r^2= 1.6D+01
   Bfn.  Coefficient  Atom+Function         Bfn.  Coefficient  Atom+Function  
  ----- ------------  ---------------      ----- ------------  ---------------
   408      9.341621  12 H  s               417     -9.341604  13 H  s         
   390      9.072160  10 H  s               399     -9.072130  11 H  s         
    48     -5.396589   2 C  s                91      5.396583   3 C  s         
   271      5.400730   7 C  px              314      5.400720   8 C  px        
   134     -5.314906   4 C  s               177      5.314923   5 C  s         

 Vector   50  Occ=0.000000D+00  E= 1.896394D-01
              MO Center=  2.3D-06, -4.1D-06, -5.9D-01, r^2= 2.0D+01
   Bfn.  Coefficient  Atom+Function         Bfn.  Coefficient  Atom+Function  
  ----- ------------  ---------------      ----- ------------  ---------------
   435     12.383760  15 H  s               444    -12.383808  16 H  s         
   390    -10.087395  10 H  s               399     10.087391  11 H  s         
   135     -8.417346   4 C  s               178      8.417305   5 C  s         
   273      6.755483   7 C  pz              316     -6.755509   8 C  pz        
   453     -6.730072  17 H  s               462     -6.730034  18 H  s         

 Vector   51  Occ=0.000000D+00  E= 1.979262D-01
              MO Center=  6.2D-06, -4.0D-07,  2.8D+00, r^2= 1.1D+01
   Bfn.  Coefficient  Atom+Function         Bfn.  Coefficient  Atom+Function  
  ----- ------------  ---------------      ----- ------------  ---------------
   229      3.904340   6 C  py              161      2.836089   4 C  dyz       
   204      2.836069   5 C  dyz              14     -2.622596   1 C  py        
   453     -2.348543  17 H  s               462      2.348561  18 H  s         
   471      2.348542  19 H  s               480     -2.348538  20 H  s         
   158      2.207803   4 C  dxy             201     -2.207793   5 C  dxy       

 Vector   52  Occ=0.000000D+00  E= 2.067872D-01
              MO Center= -1.8D-06, -2.1D-06,  3.2D-01, r^2= 1.8D+01
   Bfn.  Coefficient  Atom+Function         Bfn.  Coefficient  Atom+Function  
  ----- ------------  ---------------      ----- ------------  ---------------
   221     18.974445   6 C  s               426    -12.366178  14 H  s         
   408     -7.617669  12 H  s               417     -7.617790  13 H  s         
     5      7.397432   1 C  s               350     -7.137089   9 N  s         
   248     -6.230990   6 C  dzz              15      5.645969   1 C  pz        
   435     -5.493523  15 H  s               444     -5.493552  16 H  s         

 Vector   53  Occ=0.000000D+00  E= 2.069056D-01
              MO Center= -4.4D-06, -4.8D-06, -1.3D-01, r^2= 1.7D+01
   Bfn.  Coefficient  Atom+Function         Bfn.  Coefficient  Atom+Function  
  ----- ------------  ---------------      ----- ------------  ---------------
   244      8.444394   6 C  dxy             161      4.846273   4 C  dyz       
   204     -4.846287   5 C  dyz             290     -4.681030   7 C  dyz       
   333      4.681031   8 C  dyz             158      2.916444   4 C  dxy       
   201      2.916452   5 C  dxy             143     -2.661801   4 C  py        
   186      2.661794   5 C  py               57     -2.533911   2 C  py        

 Vector   54  Occ=0.000000D+00  E= 2.130567D-01
              MO Center=  5.0D-06, -1.3D-06, -8.5D-01, r^2= 2.0D+01
   Bfn.  Coefficient  Atom+Function         Bfn.  Coefficient  Atom+Function  
  ----- ------------  ---------------      ----- ------------  ---------------
   426     13.022065  14 H  s               350     11.636640   9 N  s         
   221     11.183482   6 C  s               135     -8.773644   4 C  s         
   178     -8.773804   5 C  s               264     -5.944173   7 C  s         
   307     -5.944111   8 C  s                15     -4.160251   1 C  pz        
   435     -4.044607  15 H  s               444     -4.044320  16 H  s         

 Vector   55  Occ=0.000000D+00  E= 2.155462D-01
              MO Center=  1.5D-05,  6.1D-06,  6.6D-01, r^2= 2.0D+01
   Bfn.  Coefficient  Atom+Function         Bfn.  Coefficient  Atom+Function  
  ----- ------------  ---------------      ----- ------------  ---------------
   408     16.959227  12 H  s               417    -16.959411  13 H  s         
    73     -7.755049   2 C  dxz             116     -7.755121   3 C  dxz       
    48     -7.291821   2 C  s                91      7.291757   3 C  s         
    49      7.250274   2 C  s                92     -7.249923   3 C  s         
    56     -6.307018   2 C  px               99     -6.307118   3 C  px        

 Vector   56  Occ=0.000000D+00  E= 2.292797D-01
              MO Center= -3.7D-06,  4.5D-06,  3.3D-01, r^2= 9.5D+00
   Bfn.  Coefficient  Atom+Function         Bfn.  Coefficient  Atom+Function  
  ----- ------------  ---------------      ----- ------------  ---------------
   453      3.265997  17 H  s               462     -3.265985  18 H  s         
   471     -3.265996  19 H  s               480      3.265992  20 H  s         
   272      2.491071   7 C  py              315      2.491065   8 C  py        
   290      2.042838   7 C  dyz             333      2.042856   8 C  dyz       
   247      1.176485   6 C  dyz             457     -0.795261  17 H  px        

 Vector   57  Occ=0.000000D+00  E= 2.325967D-01
              MO Center= -4.5D-06, -3.6D-06, -5.4D-01, r^2= 1.6D+01
   Bfn.  Coefficient  Atom+Function         Bfn.  Coefficient  Atom+Function  
  ----- ------------  ---------------      ----- ------------  ---------------
   350     18.225308   9 N  s               435    -12.471385  15 H  s         
   444    -12.471284  16 H  s               221    -10.583180   6 C  s         
   263      8.213493   7 C  s               306      8.213529   8 C  s         
     6      6.479072   1 C  s                49     -4.855821   2 C  s         
    92     -4.855856   3 C  s               135      4.740589   4 C  s         

 Vector   58  Occ=0.000000D+00  E= 2.361980D-01
              MO Center= -1.3D-05, -1.6D-06, -1.6D+00, r^2= 1.6D+01
   Bfn.  Coefficient  Atom+Function         Bfn.  Coefficient  Atom+Function  
  ----- ------------  ---------------      ----- ------------  ---------------
   390      7.677301  10 H  s               399     -7.677416  11 H  s         
   408     -6.404025  12 H  s               417      6.404049  13 H  s         
   245      4.932498   6 C  dxz             264      4.512783   7 C  s         
   307     -4.512782   8 C  s               228     -4.285028   6 C  px        
   435      3.509278  15 H  s               444     -3.509475  16 H  s         

 Vector   59  Occ=0.000000D+00  E= 2.457131D-01
              MO Center= -7.9D-07, -3.0D-06, -4.3D-02, r^2= 1.7D+01
   Bfn.  Coefficient  Atom+Function         Bfn.  Coefficient  Atom+Function  
  ----- ------------  ---------------      ----- ------------  ---------------
   221     21.140994   6 C  s               426     14.957551  14 H  s         
   350    -12.716171   9 N  s               135     -9.701594   4 C  s         
   178     -9.701726   5 C  s               263     -8.634883   7 C  s         
   306     -8.634905   8 C  s                 6      7.111394   1 C  s         
     5     -6.540510   1 C  s               230     -5.719124   6 C  pz        

 Vector   60  Occ=0.000000D+00  E= 2.490793D-01
              MO Center=  1.4D-06,  4.1D-06, -1.0D+00, r^2= 1.2D+01
   Bfn.  Coefficient  Atom+Function         Bfn.  Coefficient  Atom+Function  
  ----- ------------  ---------------      ----- ------------  ---------------
   453      6.803488  17 H  s               462     -6.803492  18 H  s         
   471     -6.803499  19 H  s               480      6.803472  20 H  s         
   272      5.282437   7 C  py              315      5.282441   8 C  py        
   247      4.834478   6 C  dyz             290      4.404749   7 C  dyz       
   333      4.404726   8 C  dyz             158      2.368266   4 C  dxy       

 Vector   61  Occ=0.000000D+00  E= 2.567669D-01
              MO Center=  2.9D-06, -4.4D-07, -1.6D+00, r^2= 1.9D+01
   Bfn.  Coefficient  Atom+Function         Bfn.  Coefficient  Atom+Function  
  ----- ------------  ---------------      ----- ------------  ---------------
   435     -9.191710  15 H  s               444      9.191791  16 H  s         
   264      8.387545   7 C  s               307     -8.387548   8 C  s         
   273     -5.548636   7 C  pz              316      5.548721   8 C  pz        
    49     -4.547956   2 C  s                92      4.547839   3 C  s         
   453      4.011384  17 H  s               462      4.011431  18 H  s         

 Vector   62  Occ=0.000000D+00  E= 2.576961D-01
              MO Center=  1.4D-06, -3.5D-06, -8.1D-01, r^2= 1.7D+01
   Bfn.  Coefficient  Atom+Function         Bfn.  Coefficient  Atom+Function  
  ----- ------------  ---------------      ----- ------------  ---------------
   290      2.841867   7 C  dyz             333     -2.841882   8 C  dyz       
   272     -2.722589   7 C  py              315      2.722576   8 C  py        
    29      2.677964   1 C  dxy             440      2.097192  15 H  py        
   449     -2.097197  16 H  py               57     -1.992924   2 C  py        
   100      1.992914   3 C  py               75     -1.639303   2 C  dyz       

 Vector   63  Occ=0.000000D+00  E= 2.617784D-01
              MO Center=  2.6D-06, -8.6D-07,  9.0D-01, r^2= 1.5D+01
   Bfn.  Coefficient  Atom+Function         Bfn.  Coefficient  Atom+Function  
  ----- ------------  ---------------      ----- ------------  ---------------
   221     11.358647   6 C  s               349      8.648249   9 N  s         
   435     -6.664537  15 H  s               444     -6.664565  16 H  s         
   263      5.068406   7 C  s               306      5.068389   8 C  s         
     6      4.846274   1 C  s               273     -4.044661   7 C  pz        
   316     -4.044680   8 C  pz              243     -3.577504   6 C  dxx       

 Vector   64  Occ=0.000000D+00  E= 2.775634D-01
              MO Center= -4.1D-05,  1.4D-06,  1.1D+00, r^2= 1.7D+01
   Bfn.  Coefficient  Atom+Function         Bfn.  Coefficient  Atom+Function  
  ----- ------------  ---------------      ----- ------------  ---------------
     6     10.979991   1 C  s               243      8.609819   6 C  dxx       
   350     -6.611407   9 N  s               408     -6.636482  12 H  s         
   417     -6.635699  13 H  s               263     -5.297913   7 C  s         
   306     -5.298000   8 C  s               390     -5.295906  10 H  s         
   399     -5.296413  11 H  s               435      4.835100  15 H  s         

 Vector   65  Occ=0.000000D+00  E= 2.796725D-01
              MO Center=  7.1D-05, -3.0D-07,  1.6D+00, r^2= 1.8D+01
   Bfn.  Coefficient  Atom+Function         Bfn.  Coefficient  Atom+Function  
  ----- ------------  ---------------      ----- ------------  ---------------
    49     14.441626   2 C  s                92    -14.441356   3 C  s         
   135    -13.379375   4 C  s               178     13.378584   5 C  s         
   408      6.229987  12 H  s               417     -6.230522  13 H  s         
   264      5.111899   7 C  s               307     -5.111747   8 C  s         
   159     -3.791969   4 C  dxz             202     -3.792043   5 C  dxz       

 Vector   66  Occ=0.000000D+00  E= 2.813152D-01
              MO Center= -1.4D-06, -1.2D-06,  1.1D+00, r^2= 1.5D+01
   Bfn.  Coefficient  Atom+Function         Bfn.  Coefficient  Atom+Function  
  ----- ------------  ---------------      ----- ------------  ---------------
    14      4.274264   1 C  py               72      1.928807   2 C  dxy       
   115     -1.928806   3 C  dxy             247      1.743806   6 C  dyz       
    57     -1.704763   2 C  py              100     -1.704767   3 C  py        
   143     -1.228872   4 C  py              186     -1.228873   5 C  py        
   431     -1.084054  14 H  py               75     -0.870933   2 C  dyz       

 Vector   67  Occ=0.000000D+00  E= 2.821044D-01
              MO Center= -4.4D-06,  1.2D-06,  7.3D-01, r^2= 1.6D+01
   Bfn.  Coefficient  Atom+Function         Bfn.  Coefficient  Atom+Function  
  ----- ------------  ---------------      ----- ------------  ---------------
   390     11.223664  10 H  s               399    -11.223742  11 H  s         
   271     -6.637944   7 C  px              314     -6.638065   8 C  px        
    30      6.371482   1 C  dxz             374      5.253013   9 N  dxz       
    13      4.539253   1 C  px              144      4.446818   4 C  pz        
   187     -4.446882   5 C  pz              453      4.428067  17 H  s         

 Vector   68  Occ=0.000000D+00  E= 2.823387D-01
              MO Center=  7.8D-06, -7.3D-07, -2.1D+00, r^2= 1.6D+01
   Bfn.  Coefficient  Atom+Function         Bfn.  Coefficient  Atom+Function  
  ----- ------------  ---------------      ----- ------------  ---------------
   435     16.302516  15 H  s               444     16.302571  16 H  s         
   273     11.006883   7 C  pz              316     11.006909   8 C  pz        
   349     -9.936863   9 N  s               221      9.880358   6 C  s         
   263     -8.451602   7 C  s               306     -8.451584   8 C  s         
   248     -7.697346   6 C  dzz             350     -5.567122   9 N  s         

 Vector   69  Occ=0.000000D+00  E= 2.916672D-01
              MO Center=  3.2D-06, -3.0D-07,  4.0D-01, r^2= 1.7D+01
   Bfn.  Coefficient  Atom+Function         Bfn.  Coefficient  Atom+Function  
  ----- ------------  ---------------      ----- ------------  ---------------
   390     13.701236  10 H  s               399    -13.702000  11 H  s         
   135     10.323709   4 C  s               178    -10.322962   5 C  s         
   245      8.467649   6 C  dxz             408     -8.080969  12 H  s         
   417      8.081003  13 H  s               435      7.107113  15 H  s         
   444     -7.107650  16 H  s               159      6.538822   4 C  dxz       

 Vector   70  Occ=0.000000D+00  E= 2.948300D-01
              MO Center= -2.8D-05,  2.4D-06,  6.9D-02, r^2= 1.8D+01
   Bfn.  Coefficient  Atom+Function         Bfn.  Coefficient  Atom+Function  
  ----- ------------  ---------------      ----- ------------  ---------------
     6     16.456097   1 C  s                49    -13.620458   2 C  s         
    92    -13.621069   3 C  s               350     12.782968   9 N  s         
   248    -10.662456   6 C  dzz             390     -8.448957  10 H  s         
   399     -8.447878  11 H  s               263      7.503410   7 C  s         
   306      7.503649   8 C  s               243      6.571730   6 C  dxx       

 Vector   71  Occ=0.000000D+00  E= 3.091388D-01
              MO Center= -8.5D-06, -1.5D-06,  5.9D-01, r^2= 1.7D+01
   Bfn.  Coefficient  Atom+Function         Bfn.  Coefficient  Atom+Function  
  ----- ------------  ---------------      ----- ------------  ---------------
   221     19.872076   6 C  s               135    -16.872664   4 C  s         
   178    -16.872759   5 C  s                49     15.371934   2 C  s         
    92     15.372058   3 C  s               390     15.203025  10 H  s         
   399     15.202952  11 H  s                 6    -13.343229   1 C  s         
   350    -12.550964   9 N  s               273     -6.818136   7 C  pz        

 Vector   72  Occ=0.000000D+00  E= 3.126369D-01
              MO Center=  1.2D-06, -2.1D-07, -1.1D+00, r^2= 1.6D+01
   Bfn.  Coefficient  Atom+Function         Bfn.  Coefficient  Atom+Function  
  ----- ------------  ---------------      ----- ------------  ---------------
   350     17.789576   9 N  s                 5    -11.525402   1 C  s         
   426     11.224324  14 H  s               408     10.828273  12 H  s         
   417     10.828197  13 H  s               221     -9.692770   6 C  s         
   349     -9.162894   9 N  s                49      8.788240   2 C  s         
    92      8.788207   3 C  s               220     -7.595808   6 C  s         

 Vector   73  Occ=0.000000D+00  E= 3.136510D-01
              MO Center=  5.4D-07, -2.7D-06, -1.1D+00, r^2= 1.4D+01
   Bfn.  Coefficient  Atom+Function         Bfn.  Coefficient  Atom+Function  
  ----- ------------  ---------------      ----- ------------  ---------------
   290      7.155494   7 C  dyz             333     -7.155493   8 C  dyz       
   244     -6.135733   6 C  dxy             272      5.251917   7 C  py        
   315     -5.251911   8 C  py              453      4.911913  17 H  s         
   462     -4.911684  18 H  s               471      4.911892  19 H  s         
   480     -4.911689  20 H  s               158     -2.980488   4 C  dxy       

 Vector   74  Occ=0.000000D+00  E= 3.197176D-01
              MO Center=  6.3D-06,  8.9D-07,  8.0D-01, r^2= 1.6D+01
   Bfn.  Coefficient  Atom+Function         Bfn.  Coefficient  Atom+Function  
  ----- ------------  ---------------      ----- ------------  ---------------
   350     10.641779   9 N  s               243      9.458758   6 C  dxx       
     5     -7.646880   1 C  s               435     -7.346838  15 H  s         
   444     -7.346624  16 H  s               408      7.222742  12 H  s         
   417      7.222753  13 H  s               135      7.163954   4 C  s         
   178      7.163934   5 C  s               426      6.705793  14 H  s         

 Vector   75  Occ=0.000000D+00  E= 3.223257D-01
              MO Center=  1.4D-05, -2.6D-06, -8.4D-01, r^2= 1.1D+01
   Bfn.  Coefficient  Atom+Function         Bfn.  Coefficient  Atom+Function  
  ----- ------------  ---------------      ----- ------------  ---------------
   453     13.133078  17 H  s               462    -13.133038  18 H  s         
   471    -13.132834  19 H  s               480     13.132981  20 H  s         
   272     10.531814   7 C  py              315     10.531696   8 C  py        
   458      2.245165  17 H  py              467      2.245163  18 H  py        
   476      2.245135  19 H  py              485      2.245158  20 H  py        

 Vector   76  Occ=0.000000D+00  E= 3.247500D-01
              MO Center= -9.7D-06, -1.2D-06,  1.6D-02, r^2= 1.5D+01
   Bfn.  Coefficient  Atom+Function         Bfn.  Coefficient  Atom+Function  
  ----- ------------  ---------------      ----- ------------  ---------------
   453      7.848299  17 H  s               462     -7.847717  18 H  s         
   471      7.847914  19 H  s               480     -7.848434  20 H  s         
   272      6.264662   7 C  py              315     -6.264795   8 C  py        
   143     -3.746910   4 C  py              186      3.746896   5 C  py        
   290      3.050901   7 C  dyz             333     -3.050923   8 C  dyz       

 Vector   77  Occ=0.000000D+00  E= 3.273283D-01
              MO Center= -7.8D-06, -4.1D-06, -1.4D+00, r^2= 1.4D+01
   Bfn.  Coefficient  Atom+Function         Bfn.  Coefficient  Atom+Function  
  ----- ------------  ---------------      ----- ------------  ---------------
   271     11.608896   7 C  px              314     11.608940   8 C  px        
   453    -11.512528  17 H  s               462    -11.512583  18 H  s         
   471     11.512687  19 H  s               480     11.512507  20 H  s         
   435     10.247097  15 H  s               444    -10.247216  16 H  s         
   245     -8.711849   6 C  dxz             135     -8.024606   4 C  s         

 Vector   78  Occ=0.000000D+00  E= 3.389423D-01
              MO Center=  2.5D-06, -2.6D-07,  9.1D-01, r^2= 1.7D+01
   Bfn.  Coefficient  Atom+Function         Bfn.  Coefficient  Atom+Function  
  ----- ------------  ---------------      ----- ------------  ---------------
   245     15.232834   6 C  dxz             135     -9.783053   4 C  s         
   178      9.783036   5 C  s                30     -9.037783   1 C  dxz       
   408     -7.950118  12 H  s               417      7.949876  13 H  s         
   374      6.040087   9 N  dxz              56      5.908659   2 C  px        
    99      5.908587   3 C  px              271     -5.547374   7 C  px        

 Vector   79  Occ=0.000000D+00  E= 3.391946D-01
              MO Center=  1.6D-06, -4.0D-07, -6.9D-01, r^2= 1.3D+01
   Bfn.  Coefficient  Atom+Function         Bfn.  Coefficient  Atom+Function  
  ----- ------------  ---------------      ----- ------------  ---------------
   229      4.178714   6 C  py              272     -4.040984   7 C  py        
   315     -4.040962   8 C  py              453     -3.094252  17 H  s         
   462      3.094073  18 H  s               471      3.094125  19 H  s         
   480     -3.094139  20 H  s               290      2.651430   7 C  dyz       
   333      2.651436   8 C  dyz             376     -2.415055   9 N  dyz       

 Vector   80  Occ=0.000000D+00  E= 3.396894D-01
              MO Center= -1.1D-05,  1.8D-07,  1.5D+00, r^2= 1.6D+01
   Bfn.  Coefficient  Atom+Function         Bfn.  Coefficient  Atom+Function  
  ----- ------------  ---------------      ----- ------------  ---------------
   408     20.154710  12 H  s               417     20.154837  13 H  s         
   221    -13.872327   6 C  s                 5    -12.897995   1 C  s         
     6     11.531691   1 C  s                48    -10.842673   2 C  s         
    91    -10.842697   3 C  s               426     10.762887  14 H  s         
   135      9.386274   4 C  s               178      9.386503   5 C  s         

 Vector   81  Occ=0.000000D+00  E= 3.489443D-01
              MO Center= -4.0D-06,  8.8D-06, -1.6D+00, r^2= 1.4D+01
   Bfn.  Coefficient  Atom+Function         Bfn.  Coefficient  Atom+Function  
  ----- ------------  ---------------      ----- ------------  ---------------
   453     21.957385  17 H  s               462    -21.957456  18 H  s         
   471     21.957539  19 H  s               480    -21.957361  20 H  s         
   272     16.259928   7 C  py              315    -16.259957   8 C  py        
   287      6.197497   7 C  dxy             330      6.197498   8 C  dxy       
   290      5.715778   7 C  dyz             333     -5.715771   8 C  dyz       

 Vector   82  Occ=0.000000D+00  E= 3.598918D-01
              MO Center=  9.8D-06, -3.9D-06, -8.9D-01, r^2= 1.5D+01
   Bfn.  Coefficient  Atom+Function         Bfn.  Coefficient  Atom+Function  
  ----- ------------  ---------------      ----- ------------  ---------------
   350     29.906963   9 N  s               221    -14.345514   6 C  s         
   435     12.817072  15 H  s               444     12.817144  16 H  s         
   349    -12.293969   9 N  s                28    -11.218441   1 C  dxx       
   248     -7.356018   6 C  dzz              76      6.482714   2 C  dzz       
   119      6.482607   3 C  dzz              73      6.438419   2 C  dxz       

 Vector   83  Occ=0.000000D+00  E= 3.613550D-01
              MO Center= -1.7D-06,  2.0D-06,  5.5D-01, r^2= 1.5D+01
   Bfn.  Coefficient  Atom+Function         Bfn.  Coefficient  Atom+Function  
  ----- ------------  ---------------      ----- ------------  ---------------
[...]
     Transition Moments    X -0.00000   Y  0.00004   Z -1.60807
     Transition Moments   XX  0.57591  XY  0.00001  XZ  0.00001
     Transition Moments   YY  0.01636  YZ -0.00037  ZZ -0.94714
     Dipole Oscillator Strength                    0.3581819053
     Electric Quadrupole                           0.0000000283
     Magnetic Dipole                               0.0000000000
     Total Oscillator Strength                     0.3581819336

     Occ.   31  a   ---  Virt.   56  a        0.05229
     Occ.   32  a   ---  Virt.   35  a        0.29278
     Occ.   33  a   ---  Virt.   36  a       -0.93348
     Occ.   33  a   ---  Virt.   56  a        0.07154
  ----------------------------------------------------------------------------
  Root   4 singlet a              0.213703072 a.u.                5.8152 eV 
  ----------------------------------------------------------------------------
     Transition Moments    X  0.00117   Y -0.00001   Z -0.00001
     Transition Moments   XX  0.00022  XY  2.68752  XZ -0.00543
     Transition Moments   YY  0.00009  YZ -0.00001  ZZ  0.00004
     Dipole Oscillator Strength                    0.0000001949
     Electric Quadrupole                           0.0000003754
     Magnetic Dipole                               0.0000002653
     Total Oscillator Strength                     0.0000008356

     Occ.   31  a   ---  Virt.   36  a        0.08519
     Occ.   31  a   ---  Virt.   39  a       -0.07223
     Occ.   32  a   ---  Virt.   34  a        0.10267
     Occ.   32  a   ---  Virt.   40  a        0.05297
     Occ.   33  a   ---  Virt.   36  a        0.95722
     Occ.   33  a   ---  Virt.   39  a        0.07602
     Occ.   33  a   ---  Virt.   43  a        0.16162
     Occ.   33  a   ---  Virt.   58  a       -0.09434
  ----------------------------------------------------------------------------
  Root   5 singlet a              0.215953526 a.u.                5.8764 eV 
  ----------------------------------------------------------------------------
     Transition Moments    X -0.00001   Y  0.18227   Z -0.00152
     Transition Moments   XX -0.00030  XY  0.00007  XZ -0.00007
     Transition Moments   YY  0.00050  YZ  0.85319  ZZ  0.00743
     Dipole Oscillator Strength                    0.0047834020
     Electric Quadrupole                           0.0000000390
     Magnetic Dipole                               0.0000003040
     Total Oscillator Strength                     0.0047837450

     Occ.   31  a   ---  Virt.   34  a       -0.16218
     Occ.   31  a   ---  Virt.   37  a       -0.09603
     Occ.   31  a   ---  Virt.   40  a        0.09075
     Occ.   33  a   ---  Virt.   34  a       -0.08935
     Occ.   33  a   ---  Virt.   37  a        0.93858
     Occ.   33  a   ---  Virt.   40  a        0.17001
     Occ.   33  a   ---  Virt.   47  a       -0.07810
     Occ.   33  a   ---  Virt.   52  a       -0.08222
     Occ.   33  a   ---  Virt.   59  a       -0.06790
     Occ.   33  a   ---  Virt.   63  a        0.06624
  ----------------------------------------------------------------------------
  Root   6 singlet a              0.227138357 a.u.                6.1808 eV 
  ----------------------------------------------------------------------------
     Transition Moments    X -0.00002   Y  0.07744   Z  0.00069
     Transition Moments   XX -0.00413  XY  0.00002  XZ  0.00004
     Transition Moments   YY  0.00163  YZ  0.30809  ZZ -0.00635
     Dipole Oscillator Strength                    0.0009081580
     Electric Quadrupole                           0.0000000059
     Magnetic Dipole                               0.0000000523
     Total Oscillator Strength                     0.0009082162

     Occ.   31  a   ---  Virt.   41  a        0.05573
     Occ.   31  a   ---  Virt.   47  a       -0.08289
     Occ.   33  a   ---  Virt.   34  a        0.25831
     Occ.   33  a   ---  Virt.   40  a       -0.05665
     Occ.   33  a   ---  Virt.   41  a        0.92795
     Occ.   33  a   ---  Virt.   42  a       -0.09486
     Occ.   33  a   ---  Virt.   46  a        0.05720
     Occ.   33  a   ---  Virt.   47  a       -0.05118
     Occ.   33  a   ---  Virt.   59  a       -0.08636
     Occ.   33  a   ---  Virt.   63  a       -0.08480
     Occ.   33  a   ---  Virt.   64  a        0.09114
  ----------------------------------------------------------------------------
  Root   7 singlet a              0.235968226 a.u.                6.4210 eV 
  ----------------------------------------------------------------------------
     Transition Moments    X -0.00001   Y -0.42090   Z -0.00066
     Transition Moments   XX -0.00263  XY -0.00000  XZ  0.00003
     Transition Moments   YY -0.00006  YZ -1.08047  ZZ  0.00820
     Dipole Oscillator Strength                    0.0278691927
     Electric Quadrupole                           0.0000000817
     Magnetic Dipole                               0.0000001719
     Total Oscillator Strength                     0.0278694463

     Occ.   31  a   ---  Virt.   37  a        0.17415
     Occ.   31  a   ---  Virt.   42  a       -0.12553
     Occ.   32  a   ---  Virt.   36  a        0.06596
     Occ.   33  a   ---  Virt.   37  a       -0.17487
     Occ.   33  a   ---  Virt.   40  a        0.87629
     Occ.   33  a   ---  Virt.   42  a       -0.31820
     Occ.   33  a   ---  Virt.   46  a       -0.09823
     Occ.   33  a   ---  Virt.   57  a       -0.08704
     Occ.   33  a   ---  Virt.   63  a       -0.06178
     Occ.   33  a   ---  Virt.   64  a       -0.06113
     Occ.   33  a   ---  Virt.   68  a        0.07476
  ----------------------------------------------------------------------------
  Root   8 singlet a              0.241680447 a.u.                6.5765 eV 
  ----------------------------------------------------------------------------
     Transition Moments    X  0.00047   Y  0.00000   Z -0.00001
     Transition Moments   XX -0.00005  XY  0.53018  XZ -0.00598
     Transition Moments   YY -0.00003  YZ  0.00001  ZZ  0.00001
     Dipole Oscillator Strength                    0.0000000350
     Electric Quadrupole                           0.0000000211
     Magnetic Dipole                               0.0000000064
     Total Oscillator Strength                     0.0000000625

     Occ.   31  a   ---  Virt.   36  a        0.14674
     Occ.   31  a   ---  Virt.   43  a       -0.07179
     Occ.   32  a   ---  Virt.   34  a       -0.10713
     Occ.   32  a   ---  Virt.   37  a       -0.12905
     Occ.   32  a   ---  Virt.   40  a       -0.05092
     Occ.   33  a   ---  Virt.   36  a        0.09893
     Occ.   33  a   ---  Virt.   39  a       -0.94757
     Occ.   33  a   ---  Virt.   43  a       -0.08672
     Occ.   33  a   ---  Virt.   61  a       -0.10099
     Occ.   33  a   ---  Virt.   67  a       -0.06596
     Occ.   33  a   ---  Virt.   69  a        0.05170

              Target root =      1
          Target symmetry = none
      Ground state energy =   -365.997885349076
        Excitation energy =      0.173265253281
     Excited state energy =   -365.824620095796

  stored tddft:energy   -365.82462009579564     

    8 smallest eigenvalue differences (eV) 
--------------------------------------------------------
  No. Spin  Occ  Vir  Irrep   E(Occ)    E(Vir)   E(Diff)
--------------------------------------------------------
    1    1   33   34 a        -0.267     0.048     8.561
    2    1   33   35 a        -0.267     0.065     9.024
    3    1   33   36 a        -0.267     0.069     9.146
    4    1   33   37 a        -0.267     0.072     9.228
    5    1   33   38 a        -0.267     0.081     9.476
    6    1   33   39 a        -0.267     0.091     9.738
    7    1   33   40 a        -0.267     0.095     9.853
    8    1   33   41 a        -0.267     0.105    10.129
--------------------------------------------------------

  Entering Davidson iterations
  Restricted triplet excited states

  Iter   NTrls   NConv    DeltaV     DeltaE      Time   
  ----  ------  ------  ---------  ---------  --------- 
    1      8       0     0.59E-01   0.10+100      369.0
    2     16       0     0.19E-01   0.12E-01      374.1
    3     24       0     0.16E+00   0.77E-02      373.4
    4     32       0     0.63E-01   0.30E-01      372.7
    5     40       0     0.95E-01   0.12E-01      373.2
    6     48       1     0.62E-01   0.81E-02      374.3
    7     55       3     0.23E-01   0.79E-02      358.5
    8     60       6     0.69E-02   0.64E-03      328.5
    9     62       6     0.18E-02   0.36E-04      275.0
   10     64       7     0.68E-03   0.28E-05      276.7
   11     65       7     0.23E-03   0.31E-06      260.0
   12     66       8     0.74E-04   0.22E-07      259.1
  ----  ------  ------  ---------  ---------  --------- 
  Convergence criterion met

  Ground state a        -365.997885349076 a.u.

  ----------------------------------------------------------------------------
  Root   1 triplet a              0.138329223 a.u.                3.7641 eV 
  ----------------------------------------------------------------------------
     Transition Moments                    Spin forbidden
     Oscillator Strength                   Spin forbidden

     Occ.   28  a   ---  Virt.   35  a        0.05529
     Occ.   31  a   ---  Virt.   35  a        0.20230
     Occ.   33  a   ---  Virt.   35  a       -0.96934
     Occ.   33  a   ---  Virt.   45  a        0.06031
     Occ.   33  a   ---  Virt.   62  a       -0.05251
  ----------------------------------------------------------------------------
  Root   2 triplet a              0.141887102 a.u.                3.8609 eV 
  ----------------------------------------------------------------------------
     Transition Moments                    Spin forbidden
     Oscillator Strength                   Spin forbidden

     Occ.   28  a   ---  Virt.   56  a        0.08305
     Occ.   31  a   ---  Virt.   38  a       -0.20042
     Occ.   31  a   ---  Virt.   56  a       -0.06316
     Occ.   32  a   ---  Virt.   35  a       -0.34081
     Occ.   33  a   ---  Virt.   38  a        0.89687
     Occ.   33  a   ---  Virt.   56  a       -0.05980
     Occ.   33  a   ---  Virt.   60  a        0.06104
     Occ.   33  a   ---  Virt.   66  a       -0.07494
  ----------------------------------------------------------------------------
  Root   3 triplet a              0.168373796 a.u.                4.5817 eV 
  ----------------------------------------------------------------------------
     Transition Moments                    Spin forbidden
     Oscillator Strength                   Spin forbidden

     Occ.   28  a   ---  Virt.   56  a       -0.06256
     Occ.   32  a   ---  Virt.   35  a        0.91685
     Occ.   32  a   ---  Virt.   45  a       -0.07874
     Occ.   32  a   ---  Virt.   62  a        0.07572
     Occ.   33  a   ---  Virt.   38  a        0.36379
  ----------------------------------------------------------------------------
  Root   4 triplet a              0.181216141 a.u.                4.9311 eV 
  ----------------------------------------------------------------------------
     Transition Moments                    Spin forbidden
     Oscillator Strength                   Spin forbidden

     Occ.   31  a   ---  Virt.   34  a        0.12648
     Occ.   31  a   ---  Virt.   37  a       -0.07116
     Occ.   33  a   ---  Virt.   34  a        0.92039
     Occ.   33  a   ---  Virt.   37  a        0.08506
     Occ.   33  a   ---  Virt.   40  a        0.11774
     Occ.   33  a   ---  Virt.   41  a       -0.25702
     Occ.   33  a   ---  Virt.   46  a        0.09934
     Occ.   33  a   ---  Virt.   54  a       -0.11945
  ----------------------------------------------------------------------------
  Root   5 triplet a              0.202872410 a.u.                5.5204 eV 
  ----------------------------------------------------------------------------
     Transition Moments                    Spin forbidden
     Oscillator Strength                   Spin forbidden

     Occ.   28  a   ---  Virt.   35  a       -0.07242
     Occ.   31  a   ---  Virt.   35  a        0.09370
     Occ.   32  a   ---  Virt.   38  a        0.98340
     Occ.   32  a   ---  Virt.   66  a       -0.08226
     Occ.   33  a   ---  Virt.   35  a        0.06020
  ----------------------------------------------------------------------------
  Root   6 triplet a              0.211450723 a.u.                5.7539 eV 
  ----------------------------------------------------------------------------
     Transition Moments                    Spin forbidden
     Oscillator Strength                   Spin forbidden

     Occ.   25  a   ---  Virt.   34  a        0.05727
     Occ.   31  a   ---  Virt.   36  a        0.09930
     Occ.   31  a   ---  Virt.   39  a       -0.07280
     Occ.   32  a   ---  Virt.   34  a        0.11141
     Occ.   32  a   ---  Virt.   37  a        0.05908
     Occ.   32  a   ---  Virt.   40  a        0.05924
     Occ.   33  a   ---  Virt.   36  a        0.94995
     Occ.   33  a   ---  Virt.   39  a        0.05465
     Occ.   33  a   ---  Virt.   43  a        0.16726
     Occ.   33  a   ---  Virt.   58  a       -0.10260
     Occ.   33  a   ---  Virt.   61  a       -0.05957
  ----------------------------------------------------------------------------
  Root   7 triplet a              0.214586468 a.u.                5.8392 eV 
  ----------------------------------------------------------------------------
     Transition Moments                    Spin forbidden
     Oscillator Strength                   Spin forbidden

     Occ.   31  a   ---  Virt.   34  a       -0.17034
     Occ.   31  a   ---  Virt.   37  a       -0.10779
     Occ.   31  a   ---  Virt.   40  a        0.09182
     Occ.   33  a   ---  Virt.   34  a       -0.08354
     Occ.   33  a   ---  Virt.   37  a        0.93812
     Occ.   33  a   ---  Virt.   40  a        0.14227
     Occ.   33  a   ---  Virt.   47  a       -0.08669
     Occ.   33  a   ---  Virt.   52  a       -0.08629
     Occ.   33  a   ---  Virt.   59  a       -0.07458
     Occ.   33  a   ---  Virt.   63  a        0.07210
  ----------------------------------------------------------------------------
  Root   8 triplet a              0.222641111 a.u.                6.0584 eV 
  ----------------------------------------------------------------------------
     Transition Moments                    Spin forbidden
     Oscillator Strength                   Spin forbidden

     Occ.   31  a   ---  Virt.   41  a       -0.05673
     Occ.   31  a   ---  Virt.   46  a        0.05008
     Occ.   31  a   ---  Virt.   47  a        0.08012
     Occ.   33  a   ---  Virt.   34  a       -0.23985
     Occ.   33  a   ---  Virt.   41  a       -0.91006
     Occ.   33  a   ---  Virt.   42  a        0.18246
     Occ.   33  a   ---  Virt.   54  a        0.07739
     Occ.   33  a   ---  Virt.   57  a        0.05053
     Occ.   33  a   ---  Virt.   59  a        0.09529
     Occ.   33  a   ---  Virt.   63  a        0.12242
     Occ.   33  a   ---  Virt.   64  a       -0.10419

              Target root =      1
          Target symmetry = none
      Ground state energy =   -365.997885349076
        Excitation energy =      0.138329222965
     Excited state energy =   -365.859556126111

  stored tddft:energy   -365.85955612611122     

 Task  times  cpu:     7940.4s     wall:     9453.9s


                                NWChem Input Module
                                -------------------


 Summary of allocated global arrays
-----------------------------------
  No active global arrays


MA_summarize_allocated_blocks: starting scan ...
heap block 'gridpts', handle 73, address 0x128ede40:
	type of elements:		double precision
	number of elements:		5242756727
	address of client space:	0x128edec0
	index for client space:		10762031
	total number of bytes:		41942053952
MA_summarize_allocated_blocks: scan completed: 1 heap block, 0 stack blocks
MA usage statistics:

	allocation statistics:
					      heap	     stack
					      ----	     -----
	current number of blocks	         1	         0
	maximum number of blocks	        18	        53
	current total bytes		41942053952	         0
	maximum total bytes		41944337392	  49813016
	maximum total K-bytes		  41944338	     49814
	maximum total M-bytes		     41945	        50


                                     CITATION
                                     --------
                Please cite the following reference when publishing
                           results obtained with NWChem:

          E. Apra, E. J. Bylaska, W. A. de Jong, N. Govind, K. Kowalski,
       T. P. Straatsma, M. Valiev, H. J. J. van Dam, Y. Alexeev, J. Anchell,
       V. Anisimov, F. W. Aquino, R. Atta-Fynn, J. Autschbach, N. P. Bauman,
     J. C. Becca, D. E. Bernholdt, K. Bhaskaran-Nair, S. Bogatko, P. Borowski,
         J. Boschen, J. Brabec, A. Bruner, E. Cauet, Y. Chen, G. N. Chuev,
      C. J. Cramer, J. Daily, M. J. O. Deegan, T. H. Dunning Jr., M. Dupuis,
   K. G. Dyall, G. I. Fann, S. A. Fischer, A. Fonari, H. Fruchtl, L. Gagliardi,
      J. Garza, N. Gawande, S. Ghosh, K. Glaesemann, A. W. Gotz, J. Hammond,
       V. Helms, E. D. Hermes, K. Hirao, S. Hirata, M. Jacquelin, L. Jensen,
   B. G. Johnson, H. Jonsson, R. A. Kendall, M. Klemm, R. Kobayashi, V. Konkov,
      S. Krishnamoorthy, M. Krishnan, Z. Lin, R. D. Lins, R. J. Littlefield,
      A. J. Logsdail, K. Lopata, W. Ma, A. V. Marenich, J. Martin del Campo,
   D. Mejia-Rodriguez, J. E. Moore, J. M. Mullin, T. Nakajima, D. R. Nascimento,
    J. A. Nichols, P. J. Nichols, J. Nieplocha, A. Otero-de-la-Roza, B. Palmer,
    A. Panyala, T. Pirojsirikul, B. Peng, R. Peverati, J. Pittner, L. Pollack,
   R. M. Richard, P. Sadayappan, G. C. Schatz, W. A. Shelton, D. W. Silverstein,
   D. M. A. Smith, T. A. Soares, D. Song, M. Swart, H. L. Taylor, G. S. Thomas,
            V. Tipparaju, D. G. Truhlar, K. Tsemekhman, T. Van Voorhis,
      A. Vazquez-Mayagoitia, P. Verma, O. Villa, A. Vishnu, K. D. Vogiatzis,
        D. Wang, J. H. Weare, M. J. Williamson, T. L. Windus, K. Wolinski,
        A. T. Wong, Q. Wu, C. Yang, Q. Yu, M. Zacharias, Z. Zhang, Y. Zhao,
                                and R. J. Harrison
                        "NWChem: Past, present, and future
                         J. Chem. Phys. 152, 184102 (2020)
                               doi:10.1063/5.0004997

                                      AUTHORS
                                      -------
  E. Apra, E. J. Bylaska, N. Govind, K. Kowalski, M. Valiev, D. Mejia-Rodriguez,
       A. Kunitsa, N. P. Bauman, A. Panyala, W. A. de Jong, T. P. Straatsma,
   H. J. J. van Dam, D. Wang, T. L. Windus, J. Hammond, J. Autschbach, A. Woods,
    K. Bhaskaran-Nair, J. Brabec, K. Lopata, S. A. Fischer, S. Krishnamoorthy,
     M. Jacquelin, W. Ma, M. Klemm, O. Villa, Y. Chen, V. Anisimov, F. Aquino,
     S. Hirata, M. T. Hackler, E. Hermes, L. Jensen, J. E. Moore, J. C. Becca,
      V. Konjkov, T. Risthaus, M. Malagoli, A. Marenich, A. Otero-de-la-Roza,
        J. Mullin, P. Nichols, R. Peverati, J. Pittner, Y. Zhao, P.-D. Fan,
        A. Fonari, M. J. Williamson, R. J. Harrison, J. R. Rehr, M. Dupuis,
     D. Silverstein, D. M. A. Smith, J. Nieplocha, V. Tipparaju, M. Krishnan,
     B. E. Van Kuiken, A. Vazquez-Mayagoitia, M. Swart, Q. Wu, T. Van Voorhis,
     A. A. Auer, M. Nooijen, L. D. Crosby, E. Brown, G. Cisneros, G. I. Fann,
   H. Fruchtl, J. Garza, K. Hirao, R. A. Kendall, J. A. Nichols, K. Tsemekhman,
    K. Wolinski, J. Anchell, D. E. Bernholdt, P. Borowski, T. Clark, D. Clerc,
   H. Dachsel, M. J. O. Deegan, K. Dyall, D. Elwood, E. Glendening, M. Gutowski,
   A. C. Hess, J. Jaffe, B. G. Johnson, J. Ju, R. Kobayashi, R. Kutteh, Z. Lin,
   R. Littlefield, X. Long, B. Meng, T. Nakajima, S. Niu, L. Pollack, M. Rosing,
   K. Glaesemann, G. Sandrone, M. Stave, H. Taylor, G. Thomas, J. H. van Lenthe,
                               A. T. Wong, Z. Zhang.

 Total times  cpu:     7940.5s     wall:     9454.3s
