 argument  1 = /home/aditisingh4812/nw_chem/nwchem-run/nwchem-run/tddft/closed/lcwpbe/geom-MOL-2/dipeptide.nw
                                         
                                         


             Northwest Computational Chemistry Package (NWChem) 7.2.3
             --------------------------------------------------------


                    Environmental Molecular Sciences Laboratory
                       Pacific Northwest National Laboratory
                                Richland, WA 99352

                              Copyright (c) 1994-2022
                       Pacific Northwest National Laboratory
                            Battelle Memorial Institute

             NWChem is an open-source computational chemistry package
                        distributed under the terms of the
                      Educational Community License (ECL) 2.0
             A copy of the license is included with this distribution
                              in the LICENSE.TXT file

                                  ACKNOWLEDGMENT
                                  --------------

            This software and its documentation were developed at the
            EMSL at Pacific Northwest National Laboratory, a multiprogram
            national laboratory, operated for the U.S. Department of Energy
            by Battelle under Contract Number DE-AC05-76RL01830. Support
            for this work was provided by the Department of Energy Office
            of Biological and Environmental Research, Office of Basic
            Energy Sciences, and the Office of Advanced Scientific Computing.


           Job information
           ---------------

    hostname        = p05
    program         = /home/aditisingh4812/nw_chem/nwchem-7.2.3-release.revision-d690e065-srconly.2024-08-27/nwchem-7.2.3/bin/LINUX64/nwchem
    date            = Wed Apr  9 17:10:10 2025

    compiled        = Mon_Apr_07_18:51:54_2025
    source          = /home/aditisingh4812/nw_chem/nwchem-7.2.3-release.revision-d690e065-srconly.2024-08-27/nwchem-7.2.3
    nwchem branch   = 7.2.3
    nwchem revision = d690e065
    ga revision     = 5.8.0
    use scalapack   = F
    input           = /home/aditisingh4812/nw_chem/nwchem-run/nwchem-run/tddft/closed/lcwpbe/geom-MOL-2/dipeptide.nw
    prefix          = dipeptide.
    data base       = ./dipeptide.db
    status          = startup
    nproc           =       48
    time left       =     -1s



           Memory information
           ------------------

    heap     = 6553599994 doubles =  50000.0 Mbytes
    stack    = 6553599999 doubles =  50000.0 Mbytes
    global   = 6553600000 doubles =  50000.0 Mbytes (distinct from heap & stack)
    total    = ********** doubles = 150000.0 Mbytes
    verify   = yes
    hardfail = no 


           Directory information
           ---------------------

  0 permanent = .
  0 scratch   = .




                                NWChem Input Module
                                -------------------



 Scaling coordinates for geometry "geometry" by  1.889725989
 (inverse scale =  0.529177249)



                             Geometry "geometry" -> ""
                             -------------------------

 Output coordinates in angstroms (scale by  1.889725989 to convert to a.u.)

  No.       Tag          Charge          X              Y              Z
 ---- ---------------- ---------- -------------- -------------- --------------
    1 C                    6.0000     2.33386786    -0.16711694     0.00000000
    2 C                    6.0000     3.38236786     0.92477106     0.00000000
    3 C                    6.0000    -0.04698814    -0.66266694     0.00000000
    4 C                    6.0000    -1.34903614     0.12666206     0.00000000
    5 C                    6.0000    -3.78548214     0.01590906     0.00000000
    6 O                    8.0000     2.60698486    -1.37233494     0.00000000
    7 O                    8.0000    -1.37102714     1.36323106     0.00000000
    8 N                    7.0000     1.04585386     0.27122406     0.00000000
    9 N                    7.0000    -2.47963214    -0.62033594     0.00000000
   10 H                    1.0000     0.78911786     1.25285406     0.00000000
   11 H                    1.0000     3.28123186     1.55964206    -0.88500900
   12 H                    1.0000     3.28123186     1.55964206     0.88500900
   13 H                    1.0000     4.36699286     0.45859106     0.00000000
   14 H                    1.0000    -0.00121914    -1.31848494    -0.87946600
   15 H                    1.0000    -0.00121914    -1.31848494     0.87946600
   16 H                    1.0000    -2.41261214    -1.62882794     0.00000000
   17 H                    1.0000    -3.90663914     0.64379706    -0.88555200
   18 H                    1.0000    -3.90663914     0.64379706     0.88555200
   19 H                    1.0000    -4.54983514    -0.76126094     0.00000000

      Atomic Mass 
      ----------- 

      C                 12.000000
      O                 15.994910
      N                 14.003070
      H                  1.007825


 Effective nuclear repulsion energy (a.u.)     449.2372604923

            Nuclear Dipole moment (a.u.) 
            ----------------------------
        X                 Y               Z
 ---------------- ---------------- ----------------
    -0.0000000000     0.0000000000     0.0000000000


            XYZ format geometry
            -------------------
    19
 geometry
 C                     2.33386786    -0.16711694     0.00000000
 C                     3.38236786     0.92477106     0.00000000
 C                    -0.04698814    -0.66266694     0.00000000
 C                    -1.34903614     0.12666206     0.00000000
 C                    -3.78548214     0.01590906     0.00000000
 O                     2.60698486    -1.37233494     0.00000000
 O                    -1.37102714     1.36323106     0.00000000
 N                     1.04585386     0.27122406     0.00000000
 N                    -2.47963214    -0.62033594     0.00000000
 H                     0.78911786     1.25285406     0.00000000
 H                     3.28123186     1.55964206    -0.88500900
 H                     3.28123186     1.55964206     0.88500900
 H                     4.36699286     0.45859106     0.00000000
 H                    -0.00121914    -1.31848494    -0.87946600
 H                    -0.00121914    -1.31848494     0.87946600
 H                    -2.41261214    -1.62882794     0.00000000
 H                    -3.90663914     0.64379706    -0.88555200
 H                    -3.90663914     0.64379706     0.88555200
 H                    -4.54983514    -0.76126094     0.00000000

 ==============================================================================
                                internuclear distances
 ------------------------------------------------------------------------------
       center one      |      center two      | atomic units |  angstroms
 ------------------------------------------------------------------------------
    2 C                |   1 C                |     2.86066  |     1.51379
    4 C                |   3 C                |     2.87733  |     1.52262
    6 O                |   1 C                |     2.33528  |     1.23578
    7 O                |   4 C                |     2.33715  |     1.23676
    8 N                |   1 C                |     2.57109  |     1.36056
    8 N                |   3 C                |     2.71651  |     1.43752
    9 N                |   4 C                |     2.56074  |     1.35508
    9 N                |   5 C                |     2.74502  |     1.45260
   10 H                |   8 N                |     1.91741  |     1.01465
   11 H                |   2 C                |     2.06710  |     1.09386
   12 H                |   2 C                |     2.06710  |     1.09386
   13 H                |   2 C                |     2.05868  |     1.08941
   14 H                |   3 C                |     2.07496  |     1.09802
   15 H                |   3 C                |     2.07496  |     1.09802
   16 H                |   9 N                |     1.90998  |     1.01072
   17 H                |   5 C                |     2.06415  |     1.09230
   18 H                |   5 C                |     2.06415  |     1.09230
   19 H                |   5 C                |     2.05991  |     1.09006
 ------------------------------------------------------------------------------
                         number of included internuclear distances:         18
 ==============================================================================



 ==============================================================================
                                 internuclear angles
 ------------------------------------------------------------------------------
        center 1       |       center 2       |       center 3       |  degrees
 ------------------------------------------------------------------------------
    2 C                |   1 C                |   6 O                |   123.39
    2 C                |   1 C                |   8 N                |   115.04
    6 O                |   1 C                |   8 N                |   121.56
    1 C                |   2 C                |  11 H                |   110.77
    1 C                |   2 C                |  12 H                |   110.77
    1 C                |   2 C                |  13 H                |   108.50
   11 H                |   2 C                |  12 H                |   108.01
   11 H                |   2 C                |  13 H                |   109.39
   12 H                |   2 C                |  13 H                |   109.39
    4 C                |   3 C                |   8 N                |   108.26
    4 C                |   3 C                |  14 H                |   110.20
    4 C                |   3 C                |  15 H                |   110.20
    8 N                |   3 C                |  14 H                |   110.88
    8 N                |   3 C                |  15 H                |   110.88
   14 H                |   3 C                |  15 H                |   106.44
    3 C                |   4 C                |   7 O                |   122.24
    3 C                |   4 C                |   9 N                |   115.32
    7 O                |   4 C                |   9 N                |   122.43
    9 N                |   5 C                |  17 H                |   110.58
    9 N                |   5 C                |  18 H                |   110.58
    9 N                |   5 C                |  19 H                |   108.55
   17 H                |   5 C                |  18 H                |   108.33
   17 H                |   5 C                |  19 H                |   109.39
   18 H                |   5 C                |  19 H                |   109.39
    1 C                |   8 N                |   3 C                |   120.69
    1 C                |   8 N                |  10 H                |   123.45
    3 C                |   8 N                |  10 H                |   115.86
    4 C                |   9 N                |   5 C                |   120.57
    4 C                |   9 N                |  16 H                |   119.65
    5 C                |   9 N                |  16 H                |   119.78
 ------------------------------------------------------------------------------
                            number of included internuclear angles:         30
 ==============================================================================





 Summary of "ao basis" -> "" (cartesian)
 ------------------------------------------------------------------------------
       Tag                 Description            Shells   Functions and Types
 ---------------- ------------------------------  ------  ---------------------
 *                         def2-TZVPD                 on all atoms 


  pbe96 is a nonlocal functional; adding pw91lda local functional. 

                                 NWChem DFT Module
                                 -----------------


                      Basis "ao basis" -> "ao basis" (cartesian)
                      -----
  C (Carbon)
  ----------
            Exponent  Coefficients 
       -------------- ---------------------------------------------------------
  1 S  1.35753497E+04  0.000222
  1 S  2.03523337E+03  0.001723
  1 S  4.63225624E+02  0.008926
  1 S  1.31200196E+02  0.035728
  1 S  4.28530159E+01  0.110763
  1 S  1.55841858E+01  0.242956

  2 S  6.20671385E+00  0.414403
  2 S  2.57648965E+00  0.237450

  3 S  5.76963394E-01  1.000000

  4 S  2.29728314E-01  1.000000

  5 S  9.51644400E-02  1.000000

  6 S  4.84754014E-02  1.000000

  7 P  3.46972322E+01  0.005333
  7 P  7.95826228E+00  0.035864
  7 P  2.37808269E+00  0.142159
  7 P  8.14332082E-01  0.342705

  8 P  2.88875473E-01  1.000000

  9 P  1.00568237E-01  1.000000

 10 D  1.09700000E+00  1.000000

 11 D  3.18000000E-01  1.000000

 12 D  9.09853364E-02  1.000000

 13 F  7.61000000E-01  1.000000

  O (Oxygen)
  ----------
            Exponent  Coefficients 
       -------------- ---------------------------------------------------------
  1 S  2.70323826E+04  0.000217
  1 S  4.05238714E+03  0.001684
  1 S  9.22327227E+02  0.008740
  1 S  2.61240710E+02  0.035240
  1 S  8.53546414E+01  0.111535
  1 S  3.10350352E+01  0.255890

  2 S  1.22608607E+01  0.397687
  2 S  4.99870760E+00  0.246278

  3 S  1.17031082E+00  1.000000

  4 S  4.64747410E-01  1.000000

  5 S  1.85045364E-01  1.000000

  6 S  7.02880263E-02  1.000000

  7 P  6.32749548E+01  0.006069
  7 P  1.46270494E+01  0.041913
  7 P  4.45012235E+00  0.161538
  7 P  1.52757996E+00  0.357070

  8 P  5.29351179E-01  1.000000

  9 P  1.74784213E-01  1.000000

 10 P  5.11127457E-02  1.000000

 11 D  2.31400000E+00  1.000000

 12 D  6.45000000E-01  1.000000

 13 D  1.46964774E-01  1.000000

 14 F  1.42800000E+00  1.000000

  N (Nitrogen)
  ------------
            Exponent  Coefficients 
       -------------- ---------------------------------------------------------
  1 S  1.97308006E+04  0.000219
  1 S  2.95789587E+03  0.001696
  1 S  6.73221336E+02  0.008795
  1 S  1.90682495E+02  0.035359
  1 S  6.22954419E+01  0.110958
  1 S  2.26541612E+01  0.249830

  2 S  8.97914774E+00  0.406239
  2 S  3.68630024E+00  0.243382

  3 S  8.46600768E-01  1.000000

  4 S  3.36471338E-01  1.000000

  5 S  1.36476537E-01  1.000000

  6 S  6.84416058E-02  1.000000

  7 P  4.92003805E+01  0.005555
  7 P  1.13467905E+01  0.038052
  7 P  3.42739724E+00  0.149537
  7 P  1.17855251E+00  0.349493

  8 P  4.16422050E-01  1.000000

  9 P  1.42608260E-01  1.000000

 10 D  1.65400000E+00  1.000000

 11 D  4.69000000E-01  1.000000

 12 D  1.28296421E-01  1.000000

 13 F  1.09300000E+00  1.000000

  H (Hydrogen)
  ------------
            Exponent  Coefficients 
       -------------- ---------------------------------------------------------
  1 S  3.40613410E+01  0.006025
  1 S  5.12357460E+00  0.045021
  1 S  1.16466260E+00  0.201897

  2 S  3.27230410E-01  1.000000

  3 S  1.03072410E-01  1.000000

  4 P  8.00000000E-01  1.000000

  5 P  9.57741296E-02  1.000000



 Summary of "ao basis" -> "ao basis" (cartesian)
 ------------------------------------------------------------------------------
       Tag                 Description            Shells   Functions and Types
 ---------------- ------------------------------  ------  ---------------------
 C                         def2-TZVPD               13       43   6s3p3d1f
 O                         def2-TZVPD               14       46   6s4p3d1f
 N                         def2-TZVPD               13       43   6s3p3d1f
 H                         def2-TZVPD                5        9   3s2p




 Summary of "ao basis" -> "ao basis" (cartesian)
 ------------------------------------------------------------------------------
       Tag                 Description            Shells   Functions and Types
 ---------------- ------------------------------  ------  ---------------------
 C                         def2-TZVPD               13       43   6s3p3d1f
 O                         def2-TZVPD               14       46   6s4p3d1f
 N                         def2-TZVPD               13       43   6s3p3d1f
 H                         def2-TZVPD                5        9   3s2p


  int_init: cando_txs set to always be  F
  Caching 1-el integrals 

            General Information
            -------------------
          SCF calculation type: DFT
          Wavefunction type:  closed shell.
          No. of atoms     :    19
          No. of electrons :    70
           Alpha electrons :    35
            Beta electrons :    35
          Charge           :     0
          Spin multiplicity:     1
          Use of symmetry is: off; symmetry adaption is: off
          Maximum number of iterations:  50
          AO basis - number of functions:   483
                     number of shells:   169
          Convergence on energy requested:  1.00D-06
          Convergence on density requested:  1.00D-05
          Convergence on gradient requested:  5.00D-04

              XC Information
              --------------
                     Hartree-Fock (Exact) Exchange  1.000          
                     LC-wPBE(h)Exchange Functional  1.000          
            Perdew 1991 LDA Correlation Functional  1.000 local    
           PerdewBurkeErnz. Correlation Functional  1.000 non-local

           Range-Separation Parameters        
           ---------------------------
           Alpha           :  0.00
           Beta            :  1.00
           Gamma           :  0.26
           Short-Range HF  :     F

             Grid Information
             ----------------
          Grid used for XC integration:  xfine     
          Radial quadrature: Mura-Knowles        
          Angular quadrature: Lebedev. 
          Tag              B.-S. Rad. Rad. Pts. Rad. Cut. Ang. Pts.
          ---              ---------- --------- --------- ---------
          C                   0.70      100          19.0      1454
          O                   0.60      100          18.0      1454
          N                   0.65      100          17.0      1454
          H                   0.35      100          21.0      1202
          Grid pruning is: on 
          Number of quadrature shells:  1900
          Spatial weights used:  Erf1

          Convergence Information
          -----------------------
          Convergence aids based upon iterative change in 
          total energy or number of iterations. 
          Levelshifting, if invoked, occurs when the 
          HOMO/LUMO gap drops below (HL_TOL):  1.00D-02
          DIIS, if invoked, will attempt to extrapolate 
          using up to (NFOCK): 10 stored Fock matrices.

                    Damping( 0%)  Levelshifting(0.5)       DIIS
                  --------------- ------------------- ---------------
          dE  on:    start            ASAP                start   
          dE off:    2 iters         50 iters            50 iters 


      Screening Tolerance Information
      -------------------------------
          Density screening/tol_rho:  1.00D-10
          AO Gaussian exp screening on grid/accAOfunc:  14
          CD Gaussian exp screening on grid/accCDfunc:  20
          XC Gaussian exp screening on grid/accXCfunc:  20
          Schwarz screening/accCoul:  1.00D-08

  
  CAM type calculations without CDFIT are
  only available with the direct option.
  Forcing Direct SCF
  

 WARNING : Found     5 linear dependencies 
 S eigenvalue threshold:     1.00000E-05
 Smallest S eigenvalue :     6.46688E-07
 Largest  S eigenvalue :     9.10325E-06


 !! The overlap matrix has   5 vectors deemed linearly dependent with
    eigenvalues:
 6.47D-07 1.64D-06 2.43D-06 3.26D-06 9.10D-06


      Superposition of Atomic Density Guess
      -------------------------------------

 Sum of atomic energies:        -451.54671695

      Non-variational initial energy
      ------------------------------

 Total energy =    -457.013851
 1-e energy   =   -1503.868315
 2-e energy   =     597.617203
 HOMO         =      -0.298344
 LUMO         =       0.024388

  WARNING: movecs_in_org=atomic not equal to movecs_in=./dipeptide.movecs
   Time after variat. SCF:     20.7
   Time prior to 1st pass:     20.7

 Grid_pts file          = ./dipeptide.gridpts.00
 Record size in doubles =  12289        No. of grid_pts per rec  =   3070
 Max. records in memory =     22        Max. recs in file   =  21109390

 Grid integrated density:      69.996083139018
 Requested integration accuracy:   0.10E-07

           Memory utilization after 1st SCF pass: 
           Heap Space remaining (MW):     3932.01          3932009570
          Stack Space remaining (MW):     6553.60          6553597044

   convergence    iter        energy       DeltaE   RMS-Dens  Diis-err    time
 ---------------- ----- ----------------- --------- --------- ---------  ------
 d= 0,ls=0.0,diis     1   -455.7826386802 -9.05D+02  2.58D+02  5.12D+00    74.9
 Grid integrated density:      70.000009456589
 Requested integration accuracy:   0.10E-07
 d= 0,ls=0.0,diis     2   -443.2902505620  1.25D+01  8.24D-01  4.62D+01   139.5
 Grid integrated density:      70.000009523614
 Requested integration accuracy:   0.10E-07
 d= 0,ls=0.5,diis     3   -446.3186509774 -3.03D+00  2.46D-01  3.15D+01   208.7
 Grid integrated density:      70.000009581200
 Requested integration accuracy:   0.10E-07
 d= 0,ls=0.5,diis     4   -446.3620473405 -4.34D-02  8.61D-02  3.12D+01   275.0
 Grid integrated density:      69.999998574834
 Requested integration accuracy:   0.10E-07
 d= 0,ls=0.5,diis     5   -446.3615453060  5.02D-04  2.38D-01  3.11D+01   341.1
 Grid integrated density:      69.999998578401
 Requested integration accuracy:   0.10E-07
  Resetting Diis
 d= 0,ls=0.5,diis     6   -446.3581392878  3.41D-03  1.68D-01  3.12D+01   410.0
 Grid integrated density:      69.999998580770
 Requested integration accuracy:   0.10E-07
 d= 0,ls=0.5,diis     7   -446.3538652584  4.27D-03  2.58D+02  3.12D+01   484.0
 d= 0,ls=0.5,diis     8   -452.8990992255 -6.55D+00  2.33D-02  3.62D+01   540.7
 d= 0,ls=0.5,diis     9   -455.5505307161 -2.65D+00  4.75D-03  4.85D+00   597.7
 d= 0,ls=0.5,diis    10   -456.1821121124 -6.32D-01  1.93D-03  4.79D-01   660.4
 d= 0,ls=0.5,diis    11   -456.2853281484 -1.03D-01  8.55D-04  1.14D-01   718.1
 d= 0,ls=0.5,diis    12   -456.3119413760 -2.66D-02  5.63D-04  2.29D-02   776.9
 d= 0,ls=0.5,diis    13   -456.3213811425 -9.44D-03  2.87D-04  8.23D-03   832.0
 d= 0,ls=0.5,diis    14   -456.3247204284 -3.34D-03  1.81D-04  3.32D-03   889.6
 d= 0,ls=0.5,diis    15   -456.3260235165 -1.30D-03  1.31D-04  1.22D-03   956.9
 d= 0,ls=0.5,diis    16   -456.3265195598 -4.96D-04  9.16D-05  4.25D-04  1013.0
 d= 0,ls=0.5,diis    17   -456.3266914314 -1.72D-04  5.82D-05  1.46D-04  1073.3
 d= 0,ls=0.5,diis    18   -456.3267464832 -5.51D-05  3.66D-05  4.99D-05  1130.5
 d= 0,ls=0.5,diis    19   -456.3267639235 -1.74D-05  2.28D-05  1.53D-05  1187.1
 d= 0,ls=0.5,diis    20   -456.3267691725 -5.25D-06  1.40D-05  5.54D-06  1244.1
 d= 0,ls=0.5,diis    21   -456.3267708350 -1.66D-06  8.23D-06  1.75D-06  1303.0
 d= 0,ls=0.5,diis    22   -456.3267713216 -4.87D-07  4.51D-06  4.91D-07  1362.5


         Total DFT energy =     -456.326771453660
      One electron energy =    -1511.343149858139
           Coulomb energy =      667.272018489256
    Exchange-Corr. energy =      -61.492900577050
 Nuclear repulsion energy =      449.237260492274

 Numeric. integr. density =       70.000000047141

     Total iterative time =   1399.9s



                       DFT Final Molecular Orbital Analysis
                       ------------------------------------

 Vector    1  Occ=2.000000D+00  E=-1.888158D+01
              MO Center= -1.4D+00,  1.4D+00,  3.4D-11, r^2= 1.5D-02
   Bfn.  Coefficient  Atom+Function         Bfn.  Coefficient  Atom+Function  
  ----- ------------  ---------------      ----- ------------  ---------------
   263      0.632956   7 O  s               262      0.436079   7 O  s         
   265     -0.104717   7 O  s               264      0.094245   7 O  s         

 Vector    2  Occ=2.000000D+00  E=-1.885688D+01
              MO Center=  2.6D+00, -1.4D+00, -3.5D-11, r^2= 1.5D-02
   Bfn.  Coefficient  Atom+Function         Bfn.  Coefficient  Atom+Function  
  ----- ------------  ---------------      ----- ------------  ---------------
   217      0.632955   6 O  s               216      0.436079   6 O  s         
   219     -0.104707   6 O  s               218      0.094250   6 O  s         

 Vector    3  Occ=2.000000D+00  E=-1.418152D+01
              MO Center= -2.5D+00, -6.2D-01, -3.9D-12, r^2= 2.0D-02
   Bfn.  Coefficient  Atom+Function         Bfn.  Coefficient  Atom+Function  
  ----- ------------  ---------------      ----- ------------  ---------------
   352      0.619034   9 N  s               351      0.449479   9 N  s         
   354     -0.109622   9 N  s               353      0.100455   9 N  s         

 Vector    4  Occ=2.000000D+00  E=-1.415749D+01
              MO Center=  1.0D+00,  2.7D-01,  4.3D-12, r^2= 2.0D-02
   Bfn.  Coefficient  Atom+Function         Bfn.  Coefficient  Atom+Function  
  ----- ------------  ---------------      ----- ------------  ---------------
   309      0.619015   8 N  s               308      0.449470   8 N  s         
   311     -0.109828   8 N  s               310      0.100485   8 N  s         

 Vector    5  Occ=2.000000D+00  E=-1.014913D+01
              MO Center= -1.3D+00,  1.3D-01,  2.8D-11, r^2= 2.8D-02
   Bfn.  Coefficient  Atom+Function         Bfn.  Coefficient  Atom+Function  
  ----- ------------  ---------------      ----- ------------  ---------------
   131      0.599610   4 C  s               130      0.468147   4 C  s         
   133     -0.101800   4 C  s               132      0.101220   4 C  s         

 Vector    6  Occ=2.000000D+00  E=-1.012913D+01
              MO Center=  2.3D+00, -1.7D-01,  2.3D-12, r^2= 2.8D-02
   Bfn.  Coefficient  Atom+Function         Bfn.  Coefficient  Atom+Function  
  ----- ------------  ---------------      ----- ------------  ---------------
     2      0.599632   1 C  s                 1      0.468157   1 C  s         
     4     -0.102324   1 C  s                 3      0.100683   1 C  s         

 Vector    7  Occ=2.000000D+00  E=-1.008609D+01
              MO Center= -4.7D-02, -6.6D-01,  1.4D-11, r^2= 2.8D-02
   Bfn.  Coefficient  Atom+Function         Bfn.  Coefficient  Atom+Function  
  ----- ------------  ---------------      ----- ------------  ---------------
    88      0.599555   3 C  s                87      0.468166   3 C  s         
    89      0.100543   3 C  s                90     -0.100470   3 C  s         

 Vector    8  Occ=2.000000D+00  E=-1.007885D+01
              MO Center= -3.8D+00,  1.6D-02,  3.6D-11, r^2= 2.8D-02
   Bfn.  Coefficient  Atom+Function         Bfn.  Coefficient  Atom+Function  
  ----- ------------  ---------------      ----- ------------  ---------------
   174      0.599553   5 C  s               173      0.468166   5 C  s         
   176     -0.102427   5 C  s               175      0.101094   5 C  s         

 Vector    9  Occ=2.000000D+00  E=-1.003505D+01
              MO Center=  3.4D+00,  9.2D-01, -5.9D-13, r^2= 2.8D-02
   Bfn.  Coefficient  Atom+Function         Bfn.  Coefficient  Atom+Function  
  ----- ------------  ---------------      ----- ------------  ---------------
    45      0.599455   2 C  s                44      0.468122   2 C  s         
    46      0.102803   2 C  s                47     -0.102858   2 C  s         

 Vector   10  Occ=2.000000D+00  E=-1.115253D+00
              MO Center= -1.4D+00,  6.4D-01,  5.6D-09, r^2= 1.5D+00
   Bfn.  Coefficient  Atom+Function         Bfn.  Coefficient  Atom+Function  
  ----- ------------  ---------------      ----- ------------  ---------------
   265      0.289583   7 O  s               264      0.253622   7 O  s         
   132      0.203903   4 C  s               133      0.173867   4 C  s         
   263     -0.170526   7 O  s               131     -0.127344   4 C  s         
   354      0.123769   9 N  s               353      0.110812   9 N  s         
   269     -0.107135   7 O  py              266      0.105129   7 O  s         

 Vector   11  Occ=2.000000D+00  E=-1.088856D+00
              MO Center=  2.1D+00, -7.0D-01,  1.2D-09, r^2= 1.7D+00
   Bfn.  Coefficient  Atom+Function         Bfn.  Coefficient  Atom+Function  
  ----- ------------  ---------------      ----- ------------  ---------------
   219      0.290958   6 O  s               218      0.256219   6 O  s         
     3      0.206405   1 C  s                 4      0.178927   1 C  s         
   217     -0.171831   6 O  s               311      0.131877   8 N  s         
     2     -0.127433   1 C  s               310      0.114950   8 N  s         
   220      0.104106   6 O  s               223      0.104332   6 O  py        

 Vector   12  Occ=2.000000D+00  E=-1.010675D+00
              MO Center= -2.2D+00, -2.4D-01,  1.1D-08, r^2= 1.7D+00
   Bfn.  Coefficient  Atom+Function         Bfn.  Coefficient  Atom+Function  
  ----- ------------  ---------------      ----- ------------  ---------------
   354      0.345134   9 N  s               353      0.256114   9 N  s         
   265     -0.181565   7 O  s               352     -0.179837   9 N  s         
   264     -0.150081   7 O  s               137     -0.129655   4 C  py        
   176      0.117811   5 C  s               175      0.104098   5 C  s         
   263      0.101214   7 O  s               266     -0.093316   7 O  s         

 Vector   13  Occ=2.000000D+00  E=-9.911935D-01
              MO Center=  1.2D+00, -9.6D-02,  2.3D-09, r^2= 2.0D+00
   Bfn.  Coefficient  Atom+Function         Bfn.  Coefficient  Atom+Function  
  ----- ------------  ---------------      ----- ------------  ---------------
   311      0.326750   8 N  s               310      0.241281   8 N  s         
   219     -0.193117   6 O  s               309     -0.170039   8 N  s         
   218     -0.161407   6 O  s                90      0.154662   3 C  s         
    89      0.115099   3 C  s                 8      0.108810   1 C  py        
   217      0.108173   6 O  s                 7     -0.095419   1 C  px        

 Vector   14  Occ=2.000000D+00  E=-8.516790D-01
              MO Center=  2.7D-01, -2.9D-02,  8.7D-09, r^2= 6.4D+00
   Bfn.  Coefficient  Atom+Function         Bfn.  Coefficient  Atom+Function  
  ----- ------------  ---------------      ----- ------------  ---------------
    90      0.250403   3 C  s                47     -0.171912   2 C  s         
    89      0.165428   3 C  s               176     -0.152455   5 C  s         
    46     -0.126880   2 C  s                 4     -0.115341   1 C  s         
    88     -0.114605   3 C  s               175     -0.107880   5 C  s         
   133      0.106240   4 C  s               314     -0.103793   8 N  px        

 Vector   15  Occ=2.000000D+00  E=-8.150865D-01
              MO Center=  1.2D-01,  2.9D-01,  9.0D-09, r^2= 1.1D+01
   Bfn.  Coefficient  Atom+Function         Bfn.  Coefficient  Atom+Function  
  ----- ------------  ---------------      ----- ------------  ---------------
    47      0.248946   2 C  s               176     -0.233777   5 C  s         
    46      0.189914   2 C  s               175     -0.167163   5 C  s         
    45     -0.129816   2 C  s               357      0.128412   9 N  px        
   133      0.117947   4 C  s               174      0.113501   5 C  s         
   311     -0.090674   8 N  s               132      0.085158   4 C  s         

 Vector   16  Occ=2.000000D+00  E=-7.690016D-01
              MO Center= -3.6D-01,  1.5D-02,  1.1D-08, r^2= 9.2D+00
   Bfn.  Coefficient  Atom+Function         Bfn.  Coefficient  Atom+Function  
  ----- ------------  ---------------      ----- ------------  ---------------
    90      0.229904   3 C  s               176      0.211631   5 C  s         
    47      0.179109   2 C  s               175      0.157616   5 C  s         
    89      0.154906   3 C  s                46      0.141371   2 C  s         
   354     -0.117416   9 N  s               311     -0.114150   8 N  s         
    88     -0.106986   3 C  s               136      0.107403   4 C  px        

 Vector   17  Occ=2.000000D+00  E=-6.889801D-01
              MO Center= -1.9D+00, -3.9D-01,  3.3D-09, r^2= 3.8D+00
   Bfn.  Coefficient  Atom+Function         Bfn.  Coefficient  Atom+Function  
  ----- ------------  ---------------      ----- ------------  ---------------
   358      0.255637   9 N  py              133      0.215198   4 C  s         
   449     -0.177822  16 H  s               361      0.149063   9 N  py        
   448     -0.134356  16 H  s               132      0.121614   4 C  s         
   357      0.121692   9 N  px              136     -0.118828   4 C  px        
     4      0.114431   1 C  s               354     -0.107421   9 N  s         

 Vector   18  Occ=2.000000D+00  E=-6.716168D-01
              MO Center=  6.4D-01,  2.4D-02,  4.4D-09, r^2= 3.0D+00
   Bfn.  Coefficient  Atom+Function         Bfn.  Coefficient  Atom+Function  
  ----- ------------  ---------------      ----- ------------  ---------------
   315     -0.212801   8 N  py                4      0.198875   1 C  s         
   314      0.164735   8 N  px              395     -0.163898  10 H  s         
   133     -0.139111   4 C  s               394     -0.128305  10 H  s         
    94     -0.126103   3 C  py              318     -0.122413   8 N  py        
   100     -0.115070   3 C  py                7     -0.112935   1 C  px        

 Vector   19  Occ=2.000000D+00  E=-6.240787D-01
              MO Center= -5.7D-01, -2.5D-02,  2.6D-09, r^2= 7.7D+00
   Bfn.  Coefficient  Atom+Function         Bfn.  Coefficient  Atom+Function  
  ----- ------------  ---------------      ----- ------------  ---------------
    93      0.184722   3 C  px              179      0.148170   5 C  px        
     4     -0.139579   1 C  s               136     -0.138597   4 C  px        
   358      0.138800   9 N  py              314     -0.131967   8 N  px        
   157     -0.126347   4 C  dxx              96      0.115092   3 C  px        
    99      0.115208   3 C  px              315     -0.114093   8 N  py        

 Vector   20  Occ=2.000000D+00  E=-5.799625D-01
              MO Center= -6.6D-01, -2.8D-01,  2.5D-10, r^2= 4.0D+00
   Bfn.  Coefficient  Atom+Function         Bfn.  Coefficient  Atom+Function  
  ----- ------------  ---------------      ----- ------------  ---------------
    95      0.218689   3 C  pz              101      0.180790   3 C  pz        
   138      0.165074   4 C  pz               98      0.151355   3 C  pz        
   359      0.133879   9 N  pz              316      0.123527   8 N  pz        
   141      0.122802   4 C  pz              362      0.115667   9 N  pz        
   431     -0.111132  14 H  s               440      0.111132  15 H  s         

 Vector   21  Occ=2.000000D+00  E=-5.646970D-01
              MO Center= -1.9D-01,  1.5D-01, -1.0D-09, r^2= 8.3D+00
   Bfn.  Coefficient  Atom+Function         Bfn.  Coefficient  Atom+Function  
  ----- ------------  ---------------      ----- ------------  ---------------
   357     -0.164575   9 N  px                4      0.159916   1 C  s         
   269     -0.150772   7 O  py               51     -0.126683   2 C  py        
   223      0.125365   6 O  py              100      0.122817   3 C  py        
    94      0.119775   3 C  py              363     -0.119495   9 N  px        
     3      0.115550   1 C  s               179      0.115155   5 C  px        

 Vector   22  Occ=2.000000D+00  E=-5.608494D-01
              MO Center= -4.7D-02, -4.9D-02,  2.6D-09, r^2= 6.9D+00
   Bfn.  Coefficient  Atom+Function         Bfn.  Coefficient  Atom+Function  
  ----- ------------  ---------------      ----- ------------  ---------------
   315     -0.178508   8 N  py               94      0.169722   3 C  py        
   133      0.140000   4 C  s               179     -0.137924   5 C  px        
     7     -0.120095   1 C  px              269     -0.114784   7 O  py        
   318     -0.115247   8 N  py              395     -0.111737  10 H  s         
   357      0.106369   9 N  px               97      0.103995   3 C  py        

 Vector   23  Occ=2.000000D+00  E=-5.444649D-01
              MO Center= -1.0D+00,  8.3D-02,  3.8D-08, r^2= 9.4D+00
   Bfn.  Coefficient  Atom+Function         Bfn.  Coefficient  Atom+Function  
  ----- ------------  ---------------      ----- ------------  ---------------
   181      0.217112   5 C  pz              184      0.150709   5 C  pz        
   187      0.150219   5 C  pz              359      0.147265   9 N  pz        
   362      0.131779   9 N  pz                9     -0.130929   1 C  pz        
   458     -0.121922  17 H  s               467      0.121922  18 H  s         
    52     -0.120880   2 C  pz              316     -0.119620   8 N  pz        

 Vector   24  Occ=2.000000D+00  E=-5.394347D-01
              MO Center=  6.1D-01,  1.2D-01, -5.0D-08, r^2= 8.5D+00
   Bfn.  Coefficient  Atom+Function         Bfn.  Coefficient  Atom+Function  
  ----- ------------  ---------------      ----- ------------  ---------------
    57      0.162730   2 C  py               51      0.159499   2 C  py        
   223     -0.154456   6 O  py              423      0.152719  13 H  s         
   269     -0.144075   7 O  py                7     -0.141877   1 C  px        
   357     -0.137513   9 N  px              313      0.133234   8 N  s         
   314      0.130853   8 N  px               56     -0.122827   2 C  px        

 Vector   25  Occ=2.000000D+00  E=-5.182918D-01
              MO Center=  1.1D+00,  3.7D-01,  2.4D-09, r^2= 9.5D+00
   Bfn.  Coefficient  Atom+Function         Bfn.  Coefficient  Atom+Function  
  ----- ------------  ---------------      ----- ------------  ---------------
    52      0.225550   2 C  pz               58      0.208298   2 C  pz        
   101     -0.159402   3 C  pz               55      0.155705   2 C  pz        
   181      0.150723   5 C  pz               95     -0.149741   3 C  pz        
   404     -0.134071  11 H  s               413      0.134071  12 H  s         
     9      0.127615   1 C  pz              187      0.121500   5 C  pz        

 Vector   26  Occ=2.000000D+00  E=-4.972223D-01
              MO Center= -2.0D+00,  3.7D-02, -1.4D-08, r^2= 8.2D+00
   Bfn.  Coefficient  Atom+Function         Bfn.  Coefficient  Atom+Function  
  ----- ------------  ---------------      ----- ------------  ---------------
   186      0.199599   5 C  py              476     -0.196422  19 H  s         
   180      0.192892   5 C  py              157     -0.172414   4 C  dxx       
   136      0.161515   4 C  px              179      0.159175   5 C  px        
   185      0.156141   5 C  px              477      0.145349  19 H  s         
   100      0.143500   3 C  py              475     -0.133084  19 H  s         

 Vector   27  Occ=2.000000D+00  E=-4.897460D-01
              MO Center= -1.7D+00,  2.5D-01,  8.7D-09, r^2= 6.4D+00
   Bfn.  Coefficient  Atom+Function         Bfn.  Coefficient  Atom+Function  
  ----- ------------  ---------------      ----- ------------  ---------------
   269      0.251098   7 O  py              180     -0.198751   5 C  py        
   137     -0.192606   4 C  py              272      0.160230   7 O  py        
   177     -0.146254   5 C  s               266      0.135440   7 O  s         
   358      0.132250   9 N  py              140     -0.131012   4 C  py        
   476      0.131470  19 H  s               142     -0.123171   4 C  px        

 Vector   28  Occ=2.000000D+00  E=-4.751187D-01
              MO Center=  2.4D+00,  2.9D-01,  3.0D-09, r^2= 5.2D+00
   Bfn.  Coefficient  Atom+Function         Bfn.  Coefficient  Atom+Function  
  ----- ------------  ---------------      ----- ------------  ---------------
    50      0.267546   2 C  px              422      0.200692  13 H  s         
    56      0.193704   2 C  px               53      0.177720   2 C  px        
   421      0.138820  13 H  s                 8     -0.133595   1 C  py        
   314      0.121061   8 N  px                7     -0.120022   1 C  px        
   315      0.109662   8 N  py              320      0.109260   8 N  px        

 Vector   29  Occ=2.000000D+00  E=-4.700766D-01
              MO Center=  2.2D+00, -3.5D-01,  2.9D-09, r^2= 4.6D+00
   Bfn.  Coefficient  Atom+Function         Bfn.  Coefficient  Atom+Function  
  ----- ------------  ---------------      ----- ------------  ---------------
   223      0.281907   6 O  py                8     -0.195810   1 C  py        
   226      0.181667   6 O  py               57      0.174973   2 C  py        
    51      0.154630   2 C  py              220     -0.148653   6 O  s         
    11     -0.133510   1 C  py              422     -0.123337  13 H  s         
    56     -0.120300   2 C  px              219     -0.117549   6 O  s         

 Vector   30  Occ=2.000000D+00  E=-4.649086D-01
              MO Center= -8.3D-01,  5.3D-01, -2.3D-08, r^2= 6.7D+00
   Bfn.  Coefficient  Atom+Function         Bfn.  Coefficient  Atom+Function  
  ----- ------------  ---------------      ----- ------------  ---------------
   270      0.250319   7 O  pz              273      0.204243   7 O  pz        
   138      0.201614   4 C  pz              187     -0.172168   5 C  pz        
   181     -0.153941   5 C  pz              141      0.153140   4 C  pz        
    52      0.125304   2 C  pz              276      0.123160   7 O  pz        
    58      0.108837   2 C  pz              316     -0.104253   8 N  pz        

 Vector   31  Occ=2.000000D+00  E=-4.330584D-01
              MO Center=  1.8D+00, -1.9D-01, -9.0D-09, r^2= 4.9D+00
   Bfn.  Coefficient  Atom+Function         Bfn.  Coefficient  Atom+Function  
  ----- ------------  ---------------      ----- ------------  ---------------
   224      0.256887   6 O  pz              227      0.209374   6 O  pz        
     9      0.190425   1 C  pz              101     -0.178598   3 C  pz        
    52     -0.159931   2 C  pz               58     -0.152285   2 C  pz        
    12      0.145829   1 C  pz               95     -0.141472   3 C  pz        
   270      0.127951   7 O  pz              230      0.125750   6 O  pz        

 Vector   32  Occ=2.000000D+00  E=-3.617863D-01
              MO Center= -1.8D+00,  5.8D-02, -9.4D-11, r^2= 4.1D+00
   Bfn.  Coefficient  Atom+Function         Bfn.  Coefficient  Atom+Function  
  ----- ------------  ---------------      ----- ------------  ---------------
   359      0.319277   9 N  pz              362      0.288855   9 N  pz        
   270     -0.254794   7 O  pz              273     -0.212602   7 O  pz        
   365      0.203851   9 N  pz              187     -0.189357   5 C  pz        
   276     -0.145072   7 O  pz              316     -0.117180   8 N  pz        
   459     -0.115492  17 H  s               468      0.115493  18 H  s         

 Vector   33  Occ=2.000000D+00  E=-3.589499D-01
              MO Center= -1.0D+00,  8.4D-01, -7.7D-09, r^2= 2.7D+00
   Bfn.  Coefficient  Atom+Function         Bfn.  Coefficient  Atom+Function  
  ----- ------------  ---------------      ----- ------------  ---------------
   268      0.418208   7 O  px              271      0.340811   7 O  px        
   274      0.275707   7 O  px              177      0.166327   5 C  s         
    99      0.151766   3 C  px              355      0.134655   9 N  s         
    93      0.132599   3 C  px              152      0.124143   4 C  dxy       
   396      0.115805  10 H  s               157     -0.104206   4 C  dxx       

 Vector   34  Occ=2.000000D+00  E=-3.364583D-01
              MO Center=  9.1D-01, -3.4D-01, -1.3D-09, r^2= 4.0D+00
   Bfn.  Coefficient  Atom+Function         Bfn.  Coefficient  Atom+Function  
  ----- ------------  ---------------      ----- ------------  ---------------
   316      0.329967   8 N  pz              319      0.298333   8 N  pz        
   224     -0.249615   6 O  pz              322      0.213297   8 N  pz        
   227     -0.208427   6 O  pz              101     -0.205657   3 C  pz        
   359      0.143277   9 N  pz              230     -0.141193   6 O  pz        
   362      0.129959   9 N  pz              431      0.097478  14 H  s         

 Vector   35  Occ=2.000000D+00  E=-3.279191D-01
              MO Center=  2.3D+00, -8.6D-01,  3.6D-10, r^2= 2.7D+00
   Bfn.  Coefficient  Atom+Function         Bfn.  Coefficient  Atom+Function  
  ----- ------------  ---------------      ----- ------------  ---------------
   222      0.415469   6 O  px              225      0.342523   6 O  px        
   228      0.257685   6 O  px               13     -0.138110   1 C  px        
    51      0.126350   2 C  py              268      0.117017   7 O  px        
   223      0.108502   6 O  py               23     -0.106545   1 C  dxy       
   314      0.105877   8 N  px               99     -0.102258   3 C  px        

 Vector   36  Occ=0.000000D+00  E= 3.961572D-02
              MO Center= -2.8D+00, -9.2D-01,  7.8D-08, r^2= 1.5D+01
   Bfn.  Coefficient  Atom+Function         Bfn.  Coefficient  Atom+Function  
  ----- ------------  ---------------      ----- ------------  ---------------
   178      5.155412   5 C  s               313     -5.110711   8 N  s         
    92      4.956844   3 C  s               177     -3.417119   5 C  s         
   356     -1.971585   9 N  s               396      1.978868  10 H  s         
   221     -1.955198   6 O  s               459      1.838533  17 H  s         
   468      1.838550  18 H  s               143      1.764929   4 C  py        

 Vector   37  Occ=0.000000D+00  E= 5.673496D-02
              MO Center=  1.9D+00,  1.2D+00,  4.7D-07, r^2= 2.2D+01
   Bfn.  Coefficient  Atom+Function         Bfn.  Coefficient  Atom+Function  
  ----- ------------  ---------------      ----- ------------  ---------------
    49      5.968142   2 C  s               135      5.130084   4 C  s         
   267     -3.762312   7 O  s               313     -3.407946   8 N  s         
   178     -3.047104   5 C  s                48     -2.578922   2 C  s         
   356     -2.554143   9 N  s               423      2.292670  13 H  s         
   221     -2.205161   6 O  s                 5     -2.182192   1 C  s         

 Vector   38  Occ=0.000000D+00  E= 6.454058D-02
              MO Center= -2.5D+00, -6.5D-01, -7.4D-07, r^2= 1.7D+01
   Bfn.  Coefficient  Atom+Function         Bfn.  Coefficient  Atom+Function  
  ----- ------------  ---------------      ----- ------------  ---------------
   356      7.041292   9 N  s                92      6.190659   3 C  s         
   313     -5.495799   8 N  s               450     -5.429721  16 H  s         
   267      5.325725   7 O  s               178     -4.968628   5 C  s         
   221     -4.308391   6 O  s               135     -3.672678   4 C  s         
   477     -3.563609  19 H  s                 5      2.420578   1 C  s         

 Vector   39  Occ=0.000000D+00  E= 6.979866D-02
              MO Center= -1.3D+00, -7.9D-02,  4.9D-07, r^2= 4.2D+00
   Bfn.  Coefficient  Atom+Function         Bfn.  Coefficient  Atom+Function  
  ----- ------------  ---------------      ----- ------------  ---------------
   432      2.091773  14 H  s               441     -2.091777  15 H  s         
   101      1.416229   3 C  pz              459     -1.034250  17 H  s         
   468      1.034248  18 H  s               187     -0.865900   5 C  pz        
   118     -0.850944   3 C  dyz             116      0.602410   3 C  dxz       
   438      0.437102  14 H  pz              447      0.437102  15 H  pz        

 Vector   40  Occ=0.000000D+00  E= 8.179697D-02
              MO Center=  1.8D-01,  9.1D-01,  2.1D-06, r^2= 2.5D+01
   Bfn.  Coefficient  Atom+Function         Bfn.  Coefficient  Atom+Function  
  ----- ------------  ---------------      ----- ------------  ---------------
   135     10.834005   4 C  s               267     -8.682937   7 O  s         
    49     -6.781287   2 C  s                 6      6.468619   1 C  s         
   356     -6.199946   9 N  s               477      4.481860  19 H  s         
   450      3.180186  16 H  s               100      2.876938   3 C  py        
   186      2.889220   5 C  py              178     -2.620617   5 C  s         

 Vector   41  Occ=0.000000D+00  E= 8.727549D-02
              MO Center=  2.2D+00,  2.2D-01, -2.6D-07, r^2= 5.6D+00
   Bfn.  Coefficient  Atom+Function         Bfn.  Coefficient  Atom+Function  
  ----- ------------  ---------------      ----- ------------  ---------------
   405      2.641858  11 H  s               414     -2.641860  12 H  s         
    58      1.460944   2 C  pz               75      1.026005   2 C  dyz       
   116      0.940012   3 C  dxz             411      0.630137  11 H  pz        
   420      0.630138  12 H  pz              161     -0.570661   4 C  dyz       
   159      0.529800   4 C  dxz             432      0.528509  14 H  s         

 Vector   42  Occ=0.000000D+00  E= 9.120419D-02
              MO Center=  3.2D-01, -6.5D-01, -7.7D-07, r^2= 2.4D+01
   Bfn.  Coefficient  Atom+Function         Bfn.  Coefficient  Atom+Function  
  ----- ------------  ---------------      ----- ------------  ---------------
   221    -10.026940   6 O  s                 6      9.522970   1 C  s         
   313     -9.128899   8 N  s               267      7.635529   7 O  s         
   177     -6.712096   5 C  s               135     -6.600579   4 C  s         
   450      5.941130  16 H  s               355     -5.813007   9 N  s         
   477      4.469622  19 H  s                92      4.403465   3 C  s         

 Vector   43  Occ=0.000000D+00  E= 1.039981D-01
              MO Center= -8.8D-01,  4.1D-01,  9.8D-07, r^2= 1.3D+01
   Bfn.  Coefficient  Atom+Function         Bfn.  Coefficient  Atom+Function  
  ----- ------------  ---------------      ----- ------------  ---------------
   432      3.490022  14 H  s               441     -3.490037  15 H  s         
   116      1.990168   3 C  dxz             161     -1.492463   4 C  dyz       
   101      1.465590   3 C  pz              118     -1.382785   3 C  dyz       
   459      1.252623  17 H  s               468     -1.252614  18 H  s         
   279      1.240945   7 O  pz              405      1.246907  11 H  s         

 Vector   44  Occ=0.000000D+00  E= 1.106239D-01
              MO Center=  2.3D-01,  1.8D-01, -2.4D-06, r^2= 2.2D+01
   Bfn.  Coefficient  Atom+Function         Bfn.  Coefficient  Atom+Function  
  ----- ------------  ---------------      ----- ------------  ---------------
   267     -8.115169   7 O  s               221     -7.813089   6 O  s         
   177      7.417803   5 C  s               160      6.176613   4 C  dyy       
   355      5.713182   9 N  s               135     -4.881632   4 C  s         
   450     -4.530946  16 H  s               100      3.263926   3 C  py        
     6      3.156789   1 C  s                 5      3.139401   1 C  s         

 Vector   45  Occ=0.000000D+00  E= 1.147919D-01
              MO Center=  9.6D-04,  4.1D-01, -9.5D-07, r^2= 2.4D+01
   Bfn.  Coefficient  Atom+Function         Bfn.  Coefficient  Atom+Function  
  ----- ------------  ---------------      ----- ------------  ---------------
     6     11.929311   1 C  s               477     -9.904759  19 H  s         
    92     -6.857399   3 C  s                49     -6.035730   2 C  s         
   186     -4.066824   5 C  py              185     -4.008064   5 C  px        
   356      3.939829   9 N  s               267      3.396692   7 O  s         
   459      2.791319  17 H  s               468      2.791300  18 H  s         

 Vector   46  Occ=0.000000D+00  E= 1.265788D-01
              MO Center=  8.1D-01, -7.0D-01, -4.2D-06, r^2= 2.5D+01
   Bfn.  Coefficient  Atom+Function         Bfn.  Coefficient  Atom+Function  
  ----- ------------  ---------------      ----- ------------  ---------------
   423     10.303887  13 H  s               135     -8.516606   4 C  s         
    92      7.671154   3 C  s               177     -6.331625   5 C  s         
   221      4.964205   6 O  s                56     -4.477474   2 C  px        
   459      3.661943  17 H  s               468      3.661934  18 H  s         
    57      3.475165   2 C  py                6     -3.399938   1 C  s         

 Vector   47  Occ=0.000000D+00  E= 1.285895D-01
              MO Center=  8.3D-01, -4.6D-01,  2.5D-06, r^2= 2.0D+01
   Bfn.  Coefficient  Atom+Function         Bfn.  Coefficient  Atom+Function  
  ----- ------------  ---------------      ----- ------------  ---------------
   459     -1.955291  17 H  s               468      1.955314  18 H  s         
    32      1.848134   1 C  dyz             405      1.565497  11 H  s         
   414     -1.565506  12 H  s               233      1.504029   6 O  pz        
   432      1.406057  14 H  s               441     -1.406062  15 H  s         
   118     -1.287368   3 C  dyz             144      1.238167   4 C  pz        

 Vector   48  Occ=0.000000D+00  E= 1.438181D-01
              MO Center=  6.6D-01,  1.1D-01,  1.2D-06, r^2= 2.2D+01
   Bfn.  Coefficient  Atom+Function         Bfn.  Coefficient  Atom+Function  
  ----- ------------  ---------------      ----- ------------  ---------------
     6      5.714750   1 C  s               221      4.723541   6 O  s         
   267     -4.246743   7 O  s               313      3.890302   8 N  s         
   160      3.249251   4 C  dyy              31     -3.190658   1 C  dyy       
   185      2.953461   5 C  px              477      2.915229  19 H  s         
   450     -2.718791  16 H  s               177      2.573860   5 C  s         

 Vector   49  Occ=0.000000D+00  E= 1.527887D-01
              MO Center= -3.7D-01, -4.4D-02, -9.6D-06, r^2= 1.7D+01
   Bfn.  Coefficient  Atom+Function         Bfn.  Coefficient  Atom+Function  
  ----- ------------  ---------------      ----- ------------  ---------------
   405      4.872344  11 H  s               414     -4.872269  12 H  s         
   432     -3.982311  14 H  s               441      3.982311  15 H  s         
   101     -3.465031   3 C  pz              187      2.555916   5 C  pz        
    58      2.359193   2 C  pz              459      2.326458  17 H  s         
   468     -2.326396  18 H  s                75      1.750715   2 C  dyz       

 Vector   50  Occ=0.000000D+00  E= 1.534435D-01
              MO Center=  9.1D-01,  2.3D-01,  7.6D-06, r^2= 2.4D+01
   Bfn.  Coefficient  Atom+Function         Bfn.  Coefficient  Atom+Function  
  ----- ------------  ---------------      ----- ------------  ---------------
   423     10.900743  13 H  s                 6      6.666911   1 C  s         
    92     -5.369826   3 C  s               405     -5.029554  11 H  s         
   414     -5.029629  12 H  s               477      4.995414  19 H  s         
    56     -4.757175   2 C  px              459     -4.419606  17 H  s         
   468     -4.419702  18 H  s               186      4.221036   5 C  py        

 Vector   51  Occ=0.000000D+00  E= 1.590354D-01
              MO Center= -8.6D-01,  6.6D-02, -3.2D-07, r^2= 2.3D+01
   Bfn.  Coefficient  Atom+Function         Bfn.  Coefficient  Atom+Function  
  ----- ------------  ---------------      ----- ------------  ---------------
   477     10.176455  19 H  s               135     -7.595025   4 C  s         
    92      7.107893   3 C  s               355     -5.890567   9 N  s         
   177     -5.363595   5 C  s               267      4.989100   7 O  s         
    48      4.868611   2 C  s               423     -4.788326  13 H  s         
   185      4.535683   5 C  px                5      4.217025   1 C  s         

 Vector   52  Occ=0.000000D+00  E= 1.634946D-01
              MO Center= -2.7D-01,  2.0D-01,  1.7D-07, r^2= 2.0D+01
   Bfn.  Coefficient  Atom+Function         Bfn.  Coefficient  Atom+Function  
  ----- ------------  ---------------      ----- ------------  ---------------
   459      7.682146  17 H  s               468     -7.682155  18 H  s         
   187      5.887274   5 C  pz              405     -5.102533  11 H  s         
   414      5.102541  12 H  s                58     -3.485796   2 C  pz        
   204      2.370869   5 C  dyz             432     -2.094957  14 H  s         
   441      2.094951  15 H  s                75     -1.493345   2 C  dyz       

 Vector   53  Occ=0.000000D+00  E= 1.702454D-01
              MO Center= -1.2D+00,  3.1D-01,  7.5D-07, r^2= 2.2D+01
   Bfn.  Coefficient  Atom+Function         Bfn.  Coefficient  Atom+Function  
  ----- ------------  ---------------      ----- ------------  ---------------
   432     -3.478605  14 H  s               441      3.478584  15 H  s         
   405      3.293430  11 H  s               414     -3.293461  12 H  s         
   459      1.955761  17 H  s               468     -1.955790  18 H  s         
   101     -1.556432   3 C  pz              116     -1.328262   3 C  dxz       
    75      1.227006   2 C  dyz             202      1.086807   5 C  dxz       

 Vector   54  Occ=0.000000D+00  E= 1.789838D-01
              MO Center= -6.4D-01,  3.5D-01, -5.6D-06, r^2= 1.7D+01
   Bfn.  Coefficient  Atom+Function         Bfn.  Coefficient  Atom+Function  
  ----- ------------  ---------------      ----- ------------  ---------------
   135     11.606842   4 C  s               267     -9.587336   7 O  s         
   313     -9.350931   8 N  s               356     -7.392535   9 N  s         
   396      5.164156  10 H  s               450      4.902849  16 H  s         
   177     -4.798923   5 C  s               221     -4.147407   6 O  s         
     6      3.983143   1 C  s               459      3.649264  17 H  s         

 Vector   55  Occ=0.000000D+00  E= 1.854055D-01
              MO Center= -9.9D-01,  1.2D-01,  7.6D-06, r^2= 1.8D+01
   Bfn.  Coefficient  Atom+Function         Bfn.  Coefficient  Atom+Function  
  ----- ------------  ---------------      ----- ------------  ---------------
   459      8.221706  17 H  s               468     -8.221734  18 H  s         
   187      6.753976   5 C  pz              432      4.778983  14 H  s         
   441     -4.779021  15 H  s               101      4.168347   3 C  pz        
   405      3.866535  11 H  s               414     -3.866552  12 H  s         
    58      3.195438   2 C  pz              204      2.373269   5 C  dyz       

 Vector   56  Occ=0.000000D+00  E= 1.908506D-01
              MO Center= -8.8D-01, -2.7D-01,  3.4D-07, r^2= 2.1D+01
   Bfn.  Coefficient  Atom+Function         Bfn.  Coefficient  Atom+Function  
  ----- ------------  ---------------      ----- ------------  ---------------
   135      7.449218   4 C  s               313      6.100867   8 N  s         
   221     -4.488827   6 O  s               423      4.504685  13 H  s         
   185      4.070142   5 C  px              356     -4.011192   9 N  s         
    92     -3.941608   3 C  s               355     -3.267145   9 N  s         
   186     -3.224149   5 C  py              405     -2.847793  11 H  s         

 Vector   57  Occ=0.000000D+00  E= 2.026571D-01
              MO Center=  8.6D-01, -3.4D-01,  2.7D-06, r^2= 1.9D+01
   Bfn.  Coefficient  Atom+Function         Bfn.  Coefficient  Atom+Function  
  ----- ------------  ---------------      ----- ------------  ---------------
   313     14.723715   8 N  s               135    -10.595053   4 C  s         
     6     -7.884746   1 C  s               356      7.824547   9 N  s         
   396     -6.909471  10 H  s               221      5.377685   6 O  s         
   450      4.804048  16 H  s               114     -4.771185   3 C  dxx       
   405     -4.772124  11 H  s               414     -4.772171  12 H  s         

 Vector   58  Occ=0.000000D+00  E= 2.057412D-01
              MO Center= -1.2D+00, -3.8D-01,  2.9D-07, r^2= 1.9D+01
   Bfn.  Coefficient  Atom+Function         Bfn.  Coefficient  Atom+Function  
  ----- ------------  ---------------      ----- ------------  ---------------
     5     10.050280   1 C  s               423     -8.566247  13 H  s         
    48      8.476658   2 C  s               177      6.900603   5 C  s         
   356     -6.691466   9 N  s                56      5.302145   2 C  px        
   477     -4.944401  19 H  s               135      4.555463   4 C  s         
   313      4.545203   8 N  s               405     -4.291267  11 H  s         

 Vector   59  Occ=0.000000D+00  E= 2.122546D-01
              MO Center=  1.8D+00,  2.6D-01,  4.1D-06, r^2= 2.0D+01
   Bfn.  Coefficient  Atom+Function         Bfn.  Coefficient  Atom+Function  
  ----- ------------  ---------------      ----- ------------  ---------------
   116      3.979222   3 C  dxz             432      3.058133  14 H  s         
   441     -3.058018  15 H  s                73     -2.541151   2 C  dxz       
    30      2.481448   1 C  dxz              58     -2.429785   2 C  pz        
   429      2.111119  13 H  pz              101      2.001109   3 C  pz        
    75      1.827968   2 C  dyz             459     -1.812625  17 H  s         

 Vector   60  Occ=0.000000D+00  E= 2.124442D-01
              MO Center= -1.3D+00, -1.3D-01, -5.5D-06, r^2= 1.8D+01
   Bfn.  Coefficient  Atom+Function         Bfn.  Coefficient  Atom+Function  
  ----- ------------  ---------------      ----- ------------  ---------------
    92     13.825382   3 C  s               177     -7.016955   5 C  s         
   158      6.446595   4 C  dxy              48      5.749046   2 C  s         
   142     -5.715417   4 C  px                5      5.548556   1 C  s         
   405     -4.820134  11 H  s               414     -4.820096  12 H  s         
   356     -4.589341   9 N  s               432      4.592563  14 H  s         

 Vector   61  Occ=0.000000D+00  E= 2.246776D-01
              MO Center=  5.3D-01,  4.7D-01, -2.4D-07, r^2= 1.9D+01
   Bfn.  Coefficient  Atom+Function         Bfn.  Coefficient  Atom+Function  
  ----- ------------  ---------------      ----- ------------  ---------------
   356     10.634233   9 N  s                48      9.321846   2 C  s         
     5      8.872922   1 C  s               313      8.542795   8 N  s         
     6     -7.665438   1 C  s               177      7.097270   5 C  s         
   423     -7.101092  13 H  s               405     -6.809693  11 H  s         
   414     -6.809689  12 H  s                57      6.655617   2 C  py        

 Vector   62  Occ=0.000000D+00  E= 2.291783D-01
              MO Center= -1.2D+00,  1.2D-01, -1.4D-06, r^2= 2.4D+01
   Bfn.  Coefficient  Atom+Function         Bfn.  Coefficient  Atom+Function  
  ----- ------------  ---------------      ----- ------------  ---------------
   313     13.819720   8 N  s               178      9.318707   5 C  s         
   177     -9.191495   5 C  s                 6     -8.691942   1 C  s         
   355     -8.540324   9 N  s               450      7.532756  16 H  s         
   423     -5.125336  13 H  s               477      5.064159  19 H  s         
   221      4.607690   6 O  s               142     -3.789335   4 C  px        

 Vector   63  Occ=0.000000D+00  E= 2.413218D-01
              MO Center=  6.4D-01, -8.4D-01,  8.7D-07, r^2= 1.8D+01
   Bfn.  Coefficient  Atom+Function         Bfn.  Coefficient  Atom+Function  
  ----- ------------  ---------------      ----- ------------  ---------------
   450    -10.944200  16 H  s               221     10.073606   6 O  s         
   477     -8.300490  19 H  s               355      7.893420   9 N  s         
   135      6.118398   4 C  s                 6     -5.948674   1 C  s         
   177      5.832626   5 C  s               185     -3.730927   5 C  px        
   134      3.515482   4 C  s               455     -3.300904  16 H  py        

 Vector   64  Occ=0.000000D+00  E= 2.415589D-01
              MO Center=  7.2D-01,  8.9D-01,  3.9D-07, r^2= 1.8D+01
   Bfn.  Coefficient  Atom+Function         Bfn.  Coefficient  Atom+Function  
  ----- ------------  ---------------      ----- ------------  ---------------
   135     14.756201   4 C  s               267    -13.811771   7 O  s         
   177     11.517716   5 C  s                92     -9.791627   3 C  s         
   356     -8.268968   9 N  s               355      7.612375   9 N  s         
    49     -7.335149   2 C  s                 6      6.473014   1 C  s         
   313      6.145884   8 N  s               459     -6.144351  17 H  s         

 Vector   65  Occ=0.000000D+00  E= 2.504180D-01
              MO Center= -2.1D-01, -3.4D-01,  3.0D-06, r^2= 1.9D+01
   Bfn.  Coefficient  Atom+Function         Bfn.  Coefficient  Atom+Function  
  ----- ------------  ---------------      ----- ------------  ---------------
   355     12.157021   9 N  s               177     11.882457   5 C  s         
     6    -10.442767   1 C  s               313      8.849147   8 N  s         
   450     -8.499253  16 H  s               135     -7.259157   4 C  s         
    92      6.668051   3 C  s               477     -5.173482  19 H  s         
   160      5.125138   4 C  dyy             185     -4.860414   5 C  px        

 Vector   66  Occ=0.000000D+00  E= 2.550954D-01
              MO Center= -1.4D-01, -4.1D-01, -1.5D-06, r^2= 1.9D+01
   Bfn.  Coefficient  Atom+Function         Bfn.  Coefficient  Atom+Function  
  ----- ------------  ---------------      ----- ------------  ---------------
   459      6.791387  17 H  s               468     -6.791341  18 H  s         
    58     -4.657401   2 C  pz              405     -4.677920  11 H  s         
   414      4.677929  12 H  s               204      4.416319   5 C  dyz       
   187      4.385996   5 C  pz              202      3.568160   5 C  dxz       
   101     -2.829924   3 C  pz              432     -2.473672  14 H  s         

 Vector   67  Occ=0.000000D+00  E= 2.571434D-01
              MO Center=  1.2D+00, -6.3D-02,  2.7D-06, r^2= 2.0D+01
   Bfn.  Coefficient  Atom+Function         Bfn.  Coefficient  Atom+Function  
  ----- ------------  ---------------      ----- ------------  ---------------
    92     16.961635   3 C  s               135    -15.128400   4 C  s         
   221    -10.624365   6 O  s                49     -7.335579   2 C  s         
   267      7.105210   7 O  s               356      5.822671   9 N  s         
    31      4.871974   1 C  dyy             114     -4.878478   3 C  dxx       
   142     -4.379488   4 C  px              158      4.212834   4 C  dxy       

 Vector   68  Occ=0.000000D+00  E= 2.597160D-01
              MO Center=  6.6D-02,  2.2D-01, -6.4D-06, r^2= 1.7D+01
   Bfn.  Coefficient  Atom+Function         Bfn.  Coefficient  Atom+Function  
  ----- ------------  ---------------      ----- ------------  ---------------
   432      7.716533  14 H  s               441     -7.716573  15 H  s         
   405      6.516922  11 H  s               414     -6.516912  12 H  s         
   101      5.649091   3 C  pz               58      5.017166   2 C  pz        
    73     -3.062497   2 C  dxz             118     -3.046748   3 C  dyz       
   187     -2.489300   5 C  pz               75      1.945829   2 C  dyz       

 Vector   69  Occ=0.000000D+00  E= 2.662178D-01
              MO Center= -1.4D+00, -3.3D-02,  9.0D-06, r^2= 1.3D+01
   Bfn.  Coefficient  Atom+Function         Bfn.  Coefficient  Atom+Function  
  ----- ------------  ---------------      ----- ------------  ---------------
   432     14.787672  14 H  s               441    -14.787811  15 H  s         
   101     10.448551   3 C  pz              118     -6.835738   3 C  dyz       
   459      5.274231  17 H  s               468     -5.274262  18 H  s         
   187      3.847932   5 C  pz              116      3.553200   3 C  dxz       
   159      3.132652   4 C  dxz             204      2.617512   5 C  dyz       

 Vector   70  Occ=0.000000D+00  E= 2.687108D-01
              MO Center= -8.7D-01,  2.1D-01, -8.7D-06, r^2= 1.8D+01
   Bfn.  Coefficient  Atom+Function         Bfn.  Coefficient  Atom+Function  
  ----- ------------  ---------------      ----- ------------  ---------------
   135      8.850599   4 C  s               221      8.017430   6 O  s         
   423     -7.308980  13 H  s                 6     -6.780214   1 C  s         
   178     -4.966931   5 C  s               267     -4.927572   7 O  s         
   313      4.332414   8 N  s               157     -3.554254   4 C  dxx       
   405      3.400311  11 H  s               414      3.400378  12 H  s         

 Vector   71  Occ=0.000000D+00  E= 2.789617D-01
              MO Center= -1.2D+00, -1.2D-01, -3.4D-07, r^2= 1.8D+01
   Bfn.  Coefficient  Atom+Function         Bfn.  Coefficient  Atom+Function  
  ----- ------------  ---------------      ----- ------------  ---------------
   477     16.153012  19 H  s               450     15.318468  16 H  s         
   186     10.707947   5 C  py              356     -8.782215   9 N  s         
   459     -7.455840  17 H  s               468     -7.455831  18 H  s         
   177     -5.844469   5 C  s               160     -5.675582   4 C  dyy       
    48      5.188049   2 C  s                92      4.976019   3 C  s         

 Vector   72  Occ=0.000000D+00  E= 2.808808D-01
              MO Center=  2.8D-01,  6.8D-01,  1.8D-06, r^2= 2.1D+01
   Bfn.  Coefficient  Atom+Function         Bfn.  Coefficient  Atom+Function  
  ----- ------------  ---------------      ----- ------------  ---------------
   177    -11.937309   5 C  s                 6     11.360813   1 C  s         
   135    -10.164549   4 C  s               355     -9.655973   9 N  s         
   450      9.422178  16 H  s                49     -9.345169   2 C  s         
   313     -9.145426   8 N  s                92      8.671302   3 C  s         
   221     -6.810361   6 O  s               267      6.535173   7 O  s         

 Vector   73  Occ=0.000000D+00  E= 2.837641D-01
              MO Center= -1.5D+00, -3.6D-01, -8.9D-07, r^2= 1.9D+01
   Bfn.  Coefficient  Atom+Function         Bfn.  Coefficient  Atom+Function  
  ----- ------------  ---------------      ----- ------------  ---------------
   477    -15.706029  19 H  s                 6     15.157789   1 C  s         
    92    -14.232403   3 C  s               177     13.841658   5 C  s         
   450    -13.559447  16 H  s               356     11.031353   9 N  s         
   355      9.520869   9 N  s               185     -8.299908   5 C  px        
   313     -8.327868   8 N  s               267      7.876518   7 O  s         

 Vector   74  Occ=0.000000D+00  E= 2.940073D-01
              MO Center= -6.6D-01, -3.1D-01,  4.5D-07, r^2= 1.6D+01
   Bfn.  Coefficient  Atom+Function         Bfn.  Coefficient  Atom+Function  
  ----- ------------  ---------------      ----- ------------  ---------------
   177     17.500108   5 C  s               355     13.138964   9 N  s         
   313    -10.113577   8 N  s               356     -9.677444   9 N  s         
   267     -9.537330   7 O  s               142      8.941364   4 C  px        
   477     -6.970212  19 H  s               450     -6.724769  16 H  s         
   158     -6.119623   4 C  dxy             100     -6.048943   3 C  py        

 Vector   75  Occ=0.000000D+00  E= 3.044427D-01
              MO Center=  1.6D-01,  1.3D-01,  2.0D-06, r^2= 1.7D+01
   Bfn.  Coefficient  Atom+Function         Bfn.  Coefficient  Atom+Function  
  ----- ------------  ---------------      ----- ------------  ---------------
   405      9.562645  11 H  s               414     -9.562763  12 H  s         
   459      8.760936  17 H  s               468     -8.760894  18 H  s         
    58      7.742956   2 C  pz              187      7.267021   5 C  pz        
   101     -7.045070   3 C  pz              432     -6.129816  14 H  s         
   441      6.129748  15 H  s                73     -3.938537   2 C  dxz       

 Vector   76  Occ=0.000000D+00  E= 3.055887D-01
              MO Center=  4.3D-01,  2.0D-01, -5.2D-08, r^2= 1.7D+01
   Bfn.  Coefficient  Atom+Function         Bfn.  Coefficient  Atom+Function  
  ----- ------------  ---------------      ----- ------------  ---------------
   267     20.389428   7 O  s               135    -17.082546   4 C  s         
    92     15.005816   3 C  s               313    -10.918961   8 N  s         
   177    -10.419630   5 C  s                 6     -6.826473   1 C  s         
   477      6.542177  19 H  s               450      6.377904  16 H  s         
   100     -5.758194   3 C  py              160     -5.774698   4 C  dyy       

 Vector   77  Occ=0.000000D+00  E= 3.159463D-01
              MO Center=  3.1D-01,  5.4D-01, -7.1D-07, r^2= 1.6D+01
   Bfn.  Coefficient  Atom+Function         Bfn.  Coefficient  Atom+Function  
  ----- ------------  ---------------      ----- ------------  ---------------
   405      7.705974  11 H  s               414     -7.706000  12 H  s         
   432     -7.051446  14 H  s               441      7.051399  15 H  s         
    58      5.662420   2 C  pz              459     -5.493642  17 H  s         
   468      5.493684  18 H  s               187     -4.818711   5 C  pz        
   101     -4.303869   3 C  pz               73     -3.530689   2 C  dxz       

 Vector   78  Occ=0.000000D+00  E= 3.188364D-01
              MO Center=  2.1D+00,  4.7D-02, -1.6D-06, r^2= 1.8D+01
   Bfn.  Coefficient  Atom+Function         Bfn.  Coefficient  Atom+Function  
  ----- ------------  ---------------      ----- ------------  ---------------
   423     29.144596  13 H  s                56    -15.434270   2 C  px        
   221     14.945643   6 O  s                 6    -11.341232   1 C  s         
     5     -9.730282   1 C  s                57      9.309867   2 C  py        
   312     -7.330661   8 N  s                48     -6.839028   2 C  s         
   313      6.680741   8 N  s               405     -6.675297  11 H  s         

 Vector   79  Occ=0.000000D+00  E= 3.227574D-01
              MO Center= -1.9D-01,  5.4D-01, -2.1D-06, r^2= 1.7D+01
   Bfn.  Coefficient  Atom+Function         Bfn.  Coefficient  Atom+Function  
  ----- ------------  ---------------      ----- ------------  ---------------
   313     10.501569   8 N  s               423      9.562689  13 H  s         
   267      9.392917   7 O  s                92     -9.259867   3 C  s         
    56     -7.295223   2 C  px              396      6.932147  10 H  s         
   477     -6.470813  19 H  s                 6      5.707934   1 C  s         
   100     -5.627448   3 C  py              221      5.474706   6 O  s         

 Vector   80  Occ=0.000000D+00  E= 3.277721D-01
              MO Center=  1.0D+00,  6.3D-02,  5.5D-07, r^2= 2.1D+01
   Bfn.  Coefficient  Atom+Function         Bfn.  Coefficient  Atom+Function  
  ----- ------------  ---------------      ----- ------------  ---------------
   423     16.702007  13 H  s               356    -12.267715   9 N  s         
   477     11.731166  19 H  s                48    -11.519142   2 C  s         
     5    -11.369364   1 C  s                56    -10.019329   2 C  px        
   267     -9.955569   7 O  s               221     -7.972097   6 O  s         
   186      7.556872   5 C  py              313     -7.039977   8 N  s         

 Vector   81  Occ=0.000000D+00  E= 3.346092D-01
              MO Center=  6.1D-01,  7.3D-01, -1.1D-05, r^2= 1.6D+01
   Bfn.  Coefficient  Atom+Function         Bfn.  Coefficient  Atom+Function  
  ----- ------------  ---------------      ----- ------------  ---------------
   313    -16.182859   8 N  s               267     15.655918   7 O  s         
     5    -12.751907   1 C  s                48    -12.382986   2 C  s         
   405     10.972578  11 H  s               414     10.972260  12 H  s         
    57     -9.718300   2 C  py              221     -9.259137   6 O  s         
   396      9.172674  10 H  s                92     -7.787113   3 C  s         

 Vector   82  Occ=0.000000D+00  E= 3.359038D-01
              MO Center= -2.1D+00, -3.3D-02, -2.4D-06, r^2= 1.4D+01
   Bfn.  Coefficient  Atom+Function         Bfn.  Coefficient  Atom+Function  
  ----- ------------  ---------------      ----- ------------  ---------------
   459     13.370915  17 H  s               468    -13.370908  18 H  s         
   187      9.651516   5 C  pz              116      4.809305   3 C  dxz       
   432      4.602436  14 H  s               441     -4.602371  15 H  s         
   204      4.351322   5 C  dyz             465      2.549899  17 H  pz        
   474      2.549896  18 H  pz              161     -2.359394   4 C  dyz       

 Vector   83  Occ=0.000000D+00  E= 3.385524D-01
              MO Center= -3.0D-01, -2.3D-01,  8.2D-06, r^2= 1.6D+01
   Bfn.  Coefficient  Atom+Function         Bfn.  Coefficient  Atom+Function  
  ----- ------------  ---------------      ----- ------------  ---------------
   432     10.166531  14 H  s               441    -10.166441  15 H  s         
   101      9.382632   3 C  pz              405      8.547367  11 H  s         
   414     -8.547803  12 H  s                58      6.498781   2 C  pz        
   204     -3.028331   5 C  dyz             116     -2.687525   3 C  dxz       
   144     -2.523767   4 C  pz              437      2.197606  14 H  py        

 Vector   84  Occ=0.000000D+00  E= 3.496788D-01
              MO Center= -2.5D+00, -8.5D-01,  1.1D-05, r^2= 1.4D+01
   Bfn.  Coefficient  Atom+Function         Bfn.  Coefficient  Atom+Function  
  ----- ------------  ---------------      ----- ------------  ---------------
   450     14.137461  16 H  s               477    -12.114289  19 H  s         
   356     -9.734944   9 N  s                 6     -8.381724   1 C  s         
   185     -8.044015   5 C  px              177     -6.935921   5 C  s         
   459      6.957636  17 H  s               468      6.958144  18 H  s         
   186     -6.394472   5 C  py              157      6.211185   4 C  dxx       

 Vector   85  Occ=0.000000D+00  E= 3.500513D-01
              MO Center=  1.4D-02,  4.6D-01, -8.6D-06, r^2= 2.0D+01
   Bfn.  Coefficient  Atom+Function         Bfn.  Coefficient  Atom+Function  
  ----- ------------  ---------------      ----- ------------  ---------------
   459     10.838549  17 H  s               468    -10.838324  18 H  s         
   187      9.419103   5 C  pz              432     -9.425662  14 H  s         
   441      9.425409  15 H  s               405     -6.609295  11 H  s         
   414      6.609628  12 H  s               101     -5.378368   3 C  pz        
    58     -5.237101   2 C  pz              116     -5.075088   3 C  dxz       

 Vector   86  Occ=0.000000D+00  E= 3.587678D-01
              MO Center= -1.4D-01, -4.0D-02, -6.4D-06, r^2= 2.0D+01
   Bfn.  Coefficient  Atom+Function         Bfn.  Coefficient  Atom+Function  
  ----- ------------  ---------------      ----- ------------  ---------------
   135     16.165526   4 C  s               313    -15.711181   8 N  s         
   221    -14.520269   6 O  s               477    -14.211366  19 H  s         
   186    -11.296887   5 C  py              459     11.097985  17 H  s         
   468     11.098140  18 H  s               177    -10.038170   5 C  s         
     5      9.148382   1 C  s               114      8.009646   3 C  dxx       

 Vector   87  Occ=0.000000D+00  E= 3.642742D-01
              MO Center=  1.3D+00,  6.3D-02,  1.6D-05, r^2= 1.3D+01
   Bfn.  Coefficient  Atom+Function         Bfn.  Coefficient  Atom+Function  
[...]
     Occ.   32  a   ---  Virt.   61  a        0.06171
     Occ.   32  a   ---  Virt.   71  a       -0.07174
     Occ.   34  a   ---  Virt.   37  a       -0.11917
     Occ.   34  a   ---  Virt.   38  a        0.13041
     Occ.   34  a   ---  Virt.   40  a        0.17573
     Occ.   34  a   ---  Virt.   42  a        0.18440
     Occ.   34  a   ---  Virt.   44  a        0.40346
     Occ.   34  a   ---  Virt.   45  a       -0.11173
     Occ.   34  a   ---  Virt.   48  a       -0.30963
     Occ.   34  a   ---  Virt.   51  a        0.17868
     Occ.   34  a   ---  Virt.   54  a       -0.09113
     Occ.   34  a   ---  Virt.   56  a       -0.10538
     Occ.   34  a   ---  Virt.   64  a       -0.07775
     Occ.   34  a   ---  Virt.   65  a       -0.07685
     Occ.   34  a   ---  Virt.   76  a       -0.05120
  ----------------------------------------------------------------------------
  Root  33 triplet a              0.317265485 a.u.                8.6332 eV 
  ----------------------------------------------------------------------------
     Transition Moments                    Spin forbidden
     Oscillator Strength                   Spin forbidden

     Occ.   25  a   ---  Virt.   38  a       -0.05472
     Occ.   30  a   ---  Virt.   37  a        0.05355
     Occ.   31  a   ---  Virt.   36  a       -0.10441
     Occ.   31  a   ---  Virt.   37  a       -0.19334
     Occ.   31  a   ---  Virt.   38  a       -0.08676
     Occ.   31  a   ---  Virt.   42  a       -0.06983
     Occ.   32  a   ---  Virt.   36  a       -0.22223
     Occ.   32  a   ---  Virt.   37  a        0.19713
     Occ.   32  a   ---  Virt.   38  a        0.24965
     Occ.   32  a   ---  Virt.   40  a        0.08112
     Occ.   32  a   ---  Virt.   42  a       -0.25116
     Occ.   32  a   ---  Virt.   45  a        0.06734
     Occ.   32  a   ---  Virt.   46  a        0.07532
     Occ.   32  a   ---  Virt.   62  a        0.05818
     Occ.   34  a   ---  Virt.   36  a        0.37563
     Occ.   34  a   ---  Virt.   37  a       -0.15976
     Occ.   34  a   ---  Virt.   38  a       -0.37770
     Occ.   34  a   ---  Virt.   40  a       -0.10003
     Occ.   34  a   ---  Virt.   42  a        0.35145
     Occ.   34  a   ---  Virt.   44  a        0.14352
     Occ.   34  a   ---  Virt.   46  a       -0.42334
     Occ.   34  a   ---  Virt.   51  a       -0.07918
     Occ.   34  a   ---  Virt.   58  a       -0.06234
     Occ.   34  a   ---  Virt.   63  a        0.06481
     Occ.   34  a   ---  Virt.   65  a       -0.06158
     Occ.   34  a   ---  Virt.   78  a        0.05518
  ----------------------------------------------------------------------------
  Root  34 triplet a              0.321106729 a.u.                8.7378 eV 
  ----------------------------------------------------------------------------
     Transition Moments                    Spin forbidden
     Oscillator Strength                   Spin forbidden

     Occ.   27  a   ---  Virt.   39  a        0.05343
     Occ.   30  a   ---  Virt.   37  a       -0.05753
     Occ.   31  a   ---  Virt.   36  a        0.05902
     Occ.   31  a   ---  Virt.   37  a        0.08860
     Occ.   31  a   ---  Virt.   42  a        0.05743
     Occ.   32  a   ---  Virt.   36  a        0.21116
     Occ.   32  a   ---  Virt.   37  a        0.28589
     Occ.   32  a   ---  Virt.   38  a        0.20524
     Occ.   32  a   ---  Virt.   40  a       -0.07962
     Occ.   32  a   ---  Virt.   42  a        0.37585
     Occ.   32  a   ---  Virt.   44  a        0.11818
     Occ.   32  a   ---  Virt.   45  a        0.05139
     Occ.   32  a   ---  Virt.   46  a        0.46218
     Occ.   32  a   ---  Virt.   48  a        0.12090
     Occ.   32  a   ---  Virt.   50  a       -0.25394
     Occ.   32  a   ---  Virt.   51  a        0.06170
     Occ.   32  a   ---  Virt.   56  a        0.14387
     Occ.   32  a   ---  Virt.   61  a        0.07306
     Occ.   32  a   ---  Virt.   72  a       -0.09023
     Occ.   34  a   ---  Virt.   36  a        0.13529
     Occ.   34  a   ---  Virt.   38  a       -0.10391
     Occ.   34  a   ---  Virt.   40  a       -0.10164
     Occ.   34  a   ---  Virt.   42  a        0.20088
     Occ.   34  a   ---  Virt.   44  a        0.08205
     Occ.   34  a   ---  Virt.   45  a       -0.11981
     Occ.   34  a   ---  Virt.   46  a        0.31325
     Occ.   34  a   ---  Virt.   50  a       -0.20338
     Occ.   34  a   ---  Virt.   54  a       -0.05997
     Occ.   34  a   ---  Virt.   56  a        0.06867
     Occ.   34  a   ---  Virt.   61  a        0.06786
     Occ.   34  a   ---  Virt.   62  a       -0.05238
     Occ.   34  a   ---  Virt.   71  a        0.05293
  ----------------------------------------------------------------------------
  Root  35 triplet a              0.322198229 a.u.                8.7675 eV 
  ----------------------------------------------------------------------------
     Transition Moments                    Spin forbidden
     Oscillator Strength                   Spin forbidden

     Occ.   33  a   ---  Virt.   36  a        0.20144
     Occ.   33  a   ---  Virt.   37  a        0.27687
     Occ.   33  a   ---  Virt.   40  a       -0.42009
     Occ.   33  a   ---  Virt.   42  a        0.25460
     Occ.   33  a   ---  Virt.   44  a       -0.07499
     Occ.   33  a   ---  Virt.   45  a        0.29822
     Occ.   33  a   ---  Virt.   46  a        0.19005
     Occ.   33  a   ---  Virt.   48  a       -0.06221
     Occ.   33  a   ---  Virt.   50  a       -0.05603
     Occ.   33  a   ---  Virt.   51  a        0.14871
     Occ.   33  a   ---  Virt.   54  a       -0.05269
     Occ.   33  a   ---  Virt.   58  a       -0.05392
     Occ.   33  a   ---  Virt.   64  a        0.06391
     Occ.   33  a   ---  Virt.   72  a       -0.05604
     Occ.   35  a   ---  Virt.   36  a        0.21047
     Occ.   35  a   ---  Virt.   37  a       -0.05724
     Occ.   35  a   ---  Virt.   38  a       -0.36083
     Occ.   35  a   ---  Virt.   40  a       -0.19263
     Occ.   35  a   ---  Virt.   42  a        0.29479
     Occ.   35  a   ---  Virt.   46  a        0.22725
     Occ.   35  a   ---  Virt.   48  a       -0.17182
     Occ.   35  a   ---  Virt.   50  a        0.10770
     Occ.   35  a   ---  Virt.   51  a       -0.17827
     Occ.   35  a   ---  Virt.   54  a       -0.07883
     Occ.   35  a   ---  Virt.   58  a       -0.08773
  ----------------------------------------------------------------------------
  Root  36 triplet a              0.323861638 a.u.                8.8127 eV 
  ----------------------------------------------------------------------------
     Transition Moments                    Spin forbidden
     Oscillator Strength                   Spin forbidden

     Occ.   33  a   ---  Virt.   36  a        0.09976
     Occ.   33  a   ---  Virt.   37  a        0.05208
     Occ.   33  a   ---  Virt.   38  a       -0.22610
     Occ.   33  a   ---  Virt.   42  a        0.28512
     Occ.   33  a   ---  Virt.   44  a       -0.28130
     Occ.   33  a   ---  Virt.   45  a        0.05644
     Occ.   33  a   ---  Virt.   48  a       -0.11206
     Occ.   33  a   ---  Virt.   50  a       -0.05894
     Occ.   33  a   ---  Virt.   54  a       -0.08202
     Occ.   33  a   ---  Virt.   58  a       -0.05079
     Occ.   35  a   ---  Virt.   37  a       -0.08285
     Occ.   35  a   ---  Virt.   38  a        0.28287
     Occ.   35  a   ---  Virt.   40  a       -0.19425
     Occ.   35  a   ---  Virt.   42  a       -0.18311
     Occ.   35  a   ---  Virt.   44  a        0.19261
     Occ.   35  a   ---  Virt.   45  a        0.52693
     Occ.   35  a   ---  Virt.   46  a        0.08787
     Occ.   35  a   ---  Virt.   48  a        0.09282
     Occ.   35  a   ---  Virt.   50  a        0.32508
     Occ.   35  a   ---  Virt.   51  a        0.28608
     Occ.   35  a   ---  Virt.   54  a        0.12697
     Occ.   35  a   ---  Virt.   58  a        0.10473
     Occ.   35  a   ---  Virt.   64  a       -0.06770
     Occ.   35  a   ---  Virt.   70  a        0.07047
     Occ.   35  a   ---  Virt.   72  a       -0.07369
  ----------------------------------------------------------------------------
  Root  37 triplet a              0.325244038 a.u.                8.8503 eV 
  ----------------------------------------------------------------------------
     Transition Moments                    Spin forbidden
     Oscillator Strength                   Spin forbidden

     Occ.   21  a   ---  Virt.   39  a       -0.06222
     Occ.   22  a   ---  Virt.   39  a       -0.06889
     Occ.   24  a   ---  Virt.   39  a       -0.10793
     Occ.   24  a   ---  Virt.   43  a        0.05069
     Occ.   26  a   ---  Virt.   39  a        0.36313
     Occ.   26  a   ---  Virt.   43  a       -0.09428
     Occ.   27  a   ---  Virt.   39  a        0.60621
     Occ.   27  a   ---  Virt.   41  a        0.10035
     Occ.   27  a   ---  Virt.   43  a       -0.17861
     Occ.   27  a   ---  Virt.   47  a       -0.06885
     Occ.   27  a   ---  Virt.   52  a        0.05704
     Occ.   28  a   ---  Virt.   39  a       -0.12846
     Occ.   28  a   ---  Virt.   41  a        0.15580
     Occ.   29  a   ---  Virt.   39  a       -0.41859
     Occ.   29  a   ---  Virt.   41  a        0.32905
     Occ.   29  a   ---  Virt.   49  a       -0.08380
     Occ.   32  a   ---  Virt.   37  a       -0.06867
     Occ.   32  a   ---  Virt.   45  a       -0.05525
     Occ.   34  a   ---  Virt.   45  a       -0.09897
     Occ.   35  a   ---  Virt.   49  a        0.07659
     Occ.   35  a   ---  Virt.   52  a       -0.06447
  ----------------------------------------------------------------------------
  Root  38 triplet a              0.327157329 a.u.                8.9024 eV 
  ----------------------------------------------------------------------------
     Transition Moments                    Spin forbidden
     Oscillator Strength                   Spin forbidden

     Occ.   24  a   ---  Virt.   39  a        0.07170
     Occ.   24  a   ---  Virt.   41  a       -0.07429
     Occ.   26  a   ---  Virt.   39  a       -0.17819
     Occ.   26  a   ---  Virt.   41  a        0.10304
     Occ.   27  a   ---  Virt.   39  a       -0.32136
     Occ.   27  a   ---  Virt.   41  a        0.20255
     Occ.   27  a   ---  Virt.   49  a       -0.05885
     Occ.   28  a   ---  Virt.   41  a        0.27266
     Occ.   28  a   ---  Virt.   43  a       -0.09576
     Occ.   28  a   ---  Virt.   49  a       -0.05464
     Occ.   29  a   ---  Virt.   39  a        0.09897
     Occ.   29  a   ---  Virt.   41  a        0.63541
     Occ.   29  a   ---  Virt.   43  a       -0.23588
     Occ.   29  a   ---  Virt.   47  a       -0.08594
     Occ.   29  a   ---  Virt.   49  a       -0.10401
     Occ.   29  a   ---  Virt.   52  a        0.05171
     Occ.   31  a   ---  Virt.   36  a       -0.08423
     Occ.   31  a   ---  Virt.   37  a       -0.12045
     Occ.   32  a   ---  Virt.   42  a        0.06109
     Occ.   33  a   ---  Virt.   41  a        0.12168
     Occ.   33  a   ---  Virt.   43  a       -0.15182
     Occ.   34  a   ---  Virt.   45  a        0.12412
     Occ.   35  a   ---  Virt.   41  a        0.09205
     Occ.   35  a   ---  Virt.   43  a        0.06878
     Occ.   35  a   ---  Virt.   47  a       -0.09380
     Occ.   35  a   ---  Virt.   49  a        0.13850
     Occ.   35  a   ---  Virt.   52  a       -0.18199
     Occ.   35  a   ---  Virt.   55  a        0.07388
  ----------------------------------------------------------------------------
  Root  39 triplet a              0.328704256 a.u.                8.9445 eV 
  ----------------------------------------------------------------------------
     Transition Moments                    Spin forbidden
     Oscillator Strength                   Spin forbidden

     Occ.   26  a   ---  Virt.   39  a        0.08911
     Occ.   27  a   ---  Virt.   39  a        0.15509
     Occ.   29  a   ---  Virt.   39  a       -0.07971
     Occ.   29  a   ---  Virt.   41  a       -0.08119
     Occ.   29  a   ---  Virt.   43  a        0.05042
     Occ.   31  a   ---  Virt.   37  a       -0.06037
     Occ.   32  a   ---  Virt.   37  a        0.18574
     Occ.   32  a   ---  Virt.   42  a        0.18390
     Occ.   32  a   ---  Virt.   44  a       -0.27502
     Occ.   32  a   ---  Virt.   45  a        0.15234
     Occ.   32  a   ---  Virt.   48  a       -0.21395
     Occ.   32  a   ---  Virt.   50  a       -0.15005
     Occ.   32  a   ---  Virt.   51  a       -0.10828
     Occ.   32  a   ---  Virt.   58  a       -0.05444
     Occ.   32  a   ---  Virt.   61  a        0.06989
     Occ.   34  a   ---  Virt.   37  a       -0.18278
     Occ.   34  a   ---  Virt.   38  a        0.17215
     Occ.   34  a   ---  Virt.   40  a       -0.13221
     Occ.   34  a   ---  Virt.   44  a       -0.08557
     Occ.   34  a   ---  Virt.   45  a        0.70946
     Occ.   34  a   ---  Virt.   46  a       -0.05843
     Occ.   34  a   ---  Virt.   48  a        0.07688
     Occ.   34  a   ---  Virt.   50  a        0.07560
     Occ.   34  a   ---  Virt.   51  a        0.15400
     Occ.   34  a   ---  Virt.   72  a       -0.08246
     Occ.   34  a   ---  Virt.   73  a       -0.05930
  ----------------------------------------------------------------------------
  Root  40 triplet a              0.329448480 a.u.                8.9648 eV 
  ----------------------------------------------------------------------------
     Transition Moments                    Spin forbidden
     Oscillator Strength                   Spin forbidden

     Occ.   32  a   ---  Virt.   41  a       -0.25523
     Occ.   32  a   ---  Virt.   43  a        0.06643
     Occ.   32  a   ---  Virt.   52  a       -0.06815
     Occ.   33  a   ---  Virt.   36  a        0.19020
     Occ.   33  a   ---  Virt.   37  a       -0.05151
     Occ.   33  a   ---  Virt.   38  a       -0.24409
     Occ.   33  a   ---  Virt.   40  a       -0.32660
     Occ.   33  a   ---  Virt.   42  a        0.12194
     Occ.   33  a   ---  Virt.   44  a       -0.09061
     Occ.   33  a   ---  Virt.   45  a        0.21665
     Occ.   33  a   ---  Virt.   48  a       -0.09243
     Occ.   33  a   ---  Virt.   50  a        0.09065
     Occ.   34  a   ---  Virt.   41  a       -0.10128
     Occ.   34  a   ---  Virt.   49  a       -0.10807
     Occ.   35  a   ---  Virt.   36  a       -0.20382
     Occ.   35  a   ---  Virt.   37  a        0.18561
     Occ.   35  a   ---  Virt.   38  a        0.26206
     Occ.   35  a   ---  Virt.   40  a        0.15923
     Occ.   35  a   ---  Virt.   42  a       -0.13677
     Occ.   35  a   ---  Virt.   44  a       -0.12311
     Occ.   35  a   ---  Virt.   45  a       -0.07965
     Occ.   35  a   ---  Virt.   46  a       -0.12578
     Occ.   35  a   ---  Virt.   48  a       -0.11285
     Occ.   35  a   ---  Virt.   50  a       -0.49472
     Occ.   35  a   ---  Virt.   51  a        0.19471
     Occ.   35  a   ---  Virt.   54  a       -0.16804
     Occ.   35  a   ---  Virt.   63  a       -0.06062
     Occ.   35  a   ---  Virt.   70  a       -0.08089

              Target root =      1
          Target symmetry = none
      Ground state energy =   -456.326771453660
        Excitation energy =      0.183637532523
     Excited state energy =   -456.143133921137

  stored tddft:energy   -456.14313392113746     

 Task  times  cpu:    13715.8s     wall:    16068.2s


                                NWChem Input Module
                                -------------------


 Summary of allocated global arrays
-----------------------------------
  No active global arrays


MA_summarize_allocated_blocks: starting scan ...
heap block 'gridpts', handle 85, address 0x123acca8:
	type of elements:		double precision
	number of elements:		2621316140
	address of client space:	0x123acd00
	index for client space:		10073335
	total number of bytes:		20970529216
MA_summarize_allocated_blocks: scan completed: 1 heap block, 0 stack blocks
MA usage statistics:

	allocation statistics:
					      heap	     stack
					      ----	     -----
	current number of blocks	         1	         0
	maximum number of blocks	        18	        53
	current total bytes		20970529216	         0
	maximum total bytes		20972722064	  51634136
	maximum total K-bytes		  20972723	     51635
	maximum total M-bytes		     20973	        52


                                     CITATION
                                     --------
                Please cite the following reference when publishing
                           results obtained with NWChem:

          E. Apra, E. J. Bylaska, W. A. de Jong, N. Govind, K. Kowalski,
       T. P. Straatsma, M. Valiev, H. J. J. van Dam, Y. Alexeev, J. Anchell,
       V. Anisimov, F. W. Aquino, R. Atta-Fynn, J. Autschbach, N. P. Bauman,
     J. C. Becca, D. E. Bernholdt, K. Bhaskaran-Nair, S. Bogatko, P. Borowski,
         J. Boschen, J. Brabec, A. Bruner, E. Cauet, Y. Chen, G. N. Chuev,
      C. J. Cramer, J. Daily, M. J. O. Deegan, T. H. Dunning Jr., M. Dupuis,
   K. G. Dyall, G. I. Fann, S. A. Fischer, A. Fonari, H. Fruchtl, L. Gagliardi,
      J. Garza, N. Gawande, S. Ghosh, K. Glaesemann, A. W. Gotz, J. Hammond,
       V. Helms, E. D. Hermes, K. Hirao, S. Hirata, M. Jacquelin, L. Jensen,
   B. G. Johnson, H. Jonsson, R. A. Kendall, M. Klemm, R. Kobayashi, V. Konkov,
      S. Krishnamoorthy, M. Krishnan, Z. Lin, R. D. Lins, R. J. Littlefield,
      A. J. Logsdail, K. Lopata, W. Ma, A. V. Marenich, J. Martin del Campo,
   D. Mejia-Rodriguez, J. E. Moore, J. M. Mullin, T. Nakajima, D. R. Nascimento,
    J. A. Nichols, P. J. Nichols, J. Nieplocha, A. Otero-de-la-Roza, B. Palmer,
    A. Panyala, T. Pirojsirikul, B. Peng, R. Peverati, J. Pittner, L. Pollack,
   R. M. Richard, P. Sadayappan, G. C. Schatz, W. A. Shelton, D. W. Silverstein,
   D. M. A. Smith, T. A. Soares, D. Song, M. Swart, H. L. Taylor, G. S. Thomas,
            V. Tipparaju, D. G. Truhlar, K. Tsemekhman, T. Van Voorhis,
      A. Vazquez-Mayagoitia, P. Verma, O. Villa, A. Vishnu, K. D. Vogiatzis,
        D. Wang, J. H. Weare, M. J. Williamson, T. L. Windus, K. Wolinski,
        A. T. Wong, Q. Wu, C. Yang, Q. Yu, M. Zacharias, Z. Zhang, Y. Zhao,
                                and R. J. Harrison
                        "NWChem: Past, present, and future
                         J. Chem. Phys. 152, 184102 (2020)
                               doi:10.1063/5.0004997

                                      AUTHORS
                                      -------
  E. Apra, E. J. Bylaska, N. Govind, K. Kowalski, M. Valiev, D. Mejia-Rodriguez,
       A. Kunitsa, N. P. Bauman, A. Panyala, W. A. de Jong, T. P. Straatsma,
   H. J. J. van Dam, D. Wang, T. L. Windus, J. Hammond, J. Autschbach, A. Woods,
    K. Bhaskaran-Nair, J. Brabec, K. Lopata, S. A. Fischer, S. Krishnamoorthy,
     M. Jacquelin, W. Ma, M. Klemm, O. Villa, Y. Chen, V. Anisimov, F. Aquino,
     S. Hirata, M. T. Hackler, E. Hermes, L. Jensen, J. E. Moore, J. C. Becca,
      V. Konjkov, T. Risthaus, M. Malagoli, A. Marenich, A. Otero-de-la-Roza,
        J. Mullin, P. Nichols, R. Peverati, J. Pittner, Y. Zhao, P.-D. Fan,
        A. Fonari, M. J. Williamson, R. J. Harrison, J. R. Rehr, M. Dupuis,
     D. Silverstein, D. M. A. Smith, J. Nieplocha, V. Tipparaju, M. Krishnan,
     B. E. Van Kuiken, A. Vazquez-Mayagoitia, M. Swart, Q. Wu, T. Van Voorhis,
     A. A. Auer, M. Nooijen, L. D. Crosby, E. Brown, G. Cisneros, G. I. Fann,
   H. Fruchtl, J. Garza, K. Hirao, R. A. Kendall, J. A. Nichols, K. Tsemekhman,
    K. Wolinski, J. Anchell, D. E. Bernholdt, P. Borowski, T. Clark, D. Clerc,
   H. Dachsel, M. J. O. Deegan, K. Dyall, D. Elwood, E. Glendening, M. Gutowski,
   A. C. Hess, J. Jaffe, B. G. Johnson, J. Ju, R. Kobayashi, R. Kutteh, Z. Lin,
   R. Littlefield, X. Long, B. Meng, T. Nakajima, S. Niu, L. Pollack, M. Rosing,
   K. Glaesemann, G. Sandrone, M. Stave, H. Taylor, G. Thomas, J. H. van Lenthe,
                               A. T. Wong, Z. Zhang.

 Total times  cpu:    13715.8s     wall:    16068.7s
