 argument  1 = /home/aditisingh4812/nw_chem/nwchem-run/nwchem-run/tddft/closed/lcwpbe/geom-MOL/dmabn.nw
                                         
                                         


             Northwest Computational Chemistry Package (NWChem) 7.2.3
             --------------------------------------------------------


                    Environmental Molecular Sciences Laboratory
                       Pacific Northwest National Laboratory
                                Richland, WA 99352

                              Copyright (c) 1994-2022
                       Pacific Northwest National Laboratory
                            Battelle Memorial Institute

             NWChem is an open-source computational chemistry package
                        distributed under the terms of the
                      Educational Community License (ECL) 2.0
             A copy of the license is included with this distribution
                              in the LICENSE.TXT file

                                  ACKNOWLEDGMENT
                                  --------------

            This software and its documentation were developed at the
            EMSL at Pacific Northwest National Laboratory, a multiprogram
            national laboratory, operated for the U.S. Department of Energy
            by Battelle under Contract Number DE-AC05-76RL01830. Support
            for this work was provided by the Department of Energy Office
            of Biological and Environmental Research, Office of Basic
            Energy Sciences, and the Office of Advanced Scientific Computing.


           Job information
           ---------------

    hostname        = p20
    program         = /home/aditisingh4812/nw_chem/nwchem-7.2.3-release.revision-d690e065-srconly.2024-08-27/nwchem-7.2.3/bin/LINUX64/nwchem
    date            = Tue Apr  8 14:30:24 2025

    compiled        = Mon_Apr_07_18:51:54_2025
    source          = /home/aditisingh4812/nw_chem/nwchem-7.2.3-release.revision-d690e065-srconly.2024-08-27/nwchem-7.2.3
    nwchem branch   = 7.2.3
    nwchem revision = d690e065
    ga revision     = 5.8.0
    use scalapack   = F
    input           = /home/aditisingh4812/nw_chem/nwchem-run/nwchem-run/tddft/closed/lcwpbe/geom-MOL/dmabn.nw
    prefix          = dmabn.
    data base       = ./dmabn.db
    status          = startup
    nproc           =       48
    time left       =     -1s



           Memory information
           ------------------

    heap     = ********** doubles = 100000.0 Mbytes
    stack    = ********** doubles = 100000.0 Mbytes
    global   = ********** doubles = 100000.0 Mbytes (distinct from heap & stack)
    total    = ********** doubles = 300000.0 Mbytes
    verify   = yes
    hardfail = no 


           Directory information
           ---------------------

  0 permanent = .
  0 scratch   = .




                                NWChem Input Module
                                -------------------



 Scaling coordinates for geometry "geometry" by  1.889725989
 (inverse scale =  0.529177249)



                             Geometry "geometry" -> ""
                             -------------------------

 Output coordinates in angstroms (scale by  1.889725989 to convert to a.u.)

  No.       Tag          Charge          X              Y              Z
 ---- ---------------- ---------- -------------- -------------- --------------
    1 C                    6.0000     0.92580294    -0.00004004     0.10564201
    2 C                    6.0000     0.19246894     1.20760896     0.07825801
    3 C                    6.0000     0.19263294    -1.20780604     0.07830601
    4 C                    6.0000    -1.19565306    -1.20791004     0.02819101
    5 C                    6.0000    -1.19582506     1.20754396     0.02816101
    6 C                    6.0000    -1.90660806    -0.00024604     0.00745401
    7 C                    6.0000    -3.33807006    -0.00022104    -0.04947499
    8 C                    6.0000     3.01552294     1.23359796    -0.12015099
    9 C                    6.0000     3.01577394    -1.23325204    -0.12027399
   10 N                    7.0000     2.31303094     0.00008096     0.20366501
   11 N                    7.0000    -4.52114706     0.00045596    -0.09593299
   12 H                    1.0000    -1.73520806     2.15137796     0.00472101
   13 H                    1.0000     0.70196494     2.16404796     0.08417201
   14 H                    1.0000     0.70226494    -2.16419104     0.08421201
   15 H                    1.0000    -1.73488206    -2.15183604     0.00481901
   16 H                    1.0000     2.73278994     2.02738996     0.57520301
   17 H                    1.0000     2.82356794     1.57907496    -1.14689499
   18 H                    1.0000     4.08632794     1.06282996    -0.00238099
   19 H                    1.0000     2.73397494    -2.02694504     0.57557901
   20 H                    1.0000     2.82313094    -1.57917304    -1.14674199
   21 H                    1.0000     4.08660894    -1.06198804    -0.00348499

      Atomic Mass 
      ----------- 

      C                 12.000000
      N                 14.003070
      H                  1.007825


 Effective nuclear repulsion energy (a.u.)     546.4084375747

            Nuclear Dipole moment (a.u.) 
            ----------------------------
        X                 Y               Z
 ---------------- ---------------- ----------------
    -0.0000000000     0.0000000000     0.0000000000


            XYZ format geometry
            -------------------
    21
 geometry
 C                     0.92580294    -0.00004004     0.10564201
 C                     0.19246894     1.20760896     0.07825801
 C                     0.19263294    -1.20780604     0.07830601
 C                    -1.19565306    -1.20791004     0.02819101
 C                    -1.19582506     1.20754396     0.02816101
 C                    -1.90660806    -0.00024604     0.00745401
 C                    -3.33807006    -0.00022104    -0.04947499
 C                     3.01552294     1.23359796    -0.12015099
 C                     3.01577394    -1.23325204    -0.12027399
 N                     2.31303094     0.00008096     0.20366501
 N                    -4.52114706     0.00045596    -0.09593299
 H                    -1.73520806     2.15137796     0.00472101
 H                     0.70196494     2.16404796     0.08417201
 H                     0.70226494    -2.16419104     0.08421201
 H                    -1.73488206    -2.15183604     0.00481901
 H                     2.73278994     2.02738996     0.57520301
 H                     2.82356794     1.57907496    -1.14689499
 H                     4.08632794     1.06282996    -0.00238099
 H                     2.73397494    -2.02694504     0.57557901
 H                     2.82313094    -1.57917304    -1.14674199
 H                     4.08660894    -1.06198804    -0.00348499

 ==============================================================================
                                internuclear distances
 ------------------------------------------------------------------------------
       center one      |      center two      | atomic units |  angstroms
 ------------------------------------------------------------------------------
    2 C                |   1 C                |     2.67043  |     1.41313
    3 C                |   1 C                |     2.67046  |     1.41315
    4 C                |   3 C                |     2.62519  |     1.38919
    5 C                |   2 C                |     2.62520  |     1.38920
    6 C                |   4 C                |     2.64854  |     1.40155
    6 C                |   5 C                |     2.64858  |     1.40157
    7 C                |   6 C                |     2.70721  |     1.43259
   10 N                |   1 C                |     2.62802  |     1.39069
   10 N                |   8 C                |     2.75143  |     1.45599
   10 N                |   9 C                |     2.75141  |     1.45599
   11 N                |   7 C                |     2.23741  |     1.18399
   12 H                |   5 C                |     2.05477  |     1.08734
   13 H                |   2 C                |     2.04789  |     1.08370
   14 H                |   3 C                |     2.04792  |     1.08371
   15 H                |   4 C                |     2.05478  |     1.08734
   16 H                |   8 C                |     2.06453  |     1.09250
   17 H                |   8 C                |     2.07905  |     1.10018
   18 H                |   8 C                |     2.06115  |     1.09071
   19 H                |   9 C                |     2.06454  |     1.09251
   20 H                |   9 C                |     2.07905  |     1.10019
   21 H                |   9 C                |     2.06115  |     1.09071
 ------------------------------------------------------------------------------
                         number of included internuclear distances:         21
 ==============================================================================



 ==============================================================================
                                 internuclear angles
 ------------------------------------------------------------------------------
        center 1       |       center 2       |       center 3       |  degrees
 ------------------------------------------------------------------------------
    2 C                |   1 C                |   3 C                |   117.44
    2 C                |   1 C                |  10 N                |   121.26
    3 C                |   1 C                |  10 N                |   121.26
    1 C                |   2 C                |   5 C                |   121.28
    1 C                |   2 C                |  13 H                |   120.67
    5 C                |   2 C                |  13 H                |   118.04
    1 C                |   3 C                |   4 C                |   121.28
    1 C                |   3 C                |  14 H                |   120.67
    4 C                |   3 C                |  14 H                |   118.04
    3 C                |   4 C                |   6 C                |   120.49
    3 C                |   4 C                |  15 H                |   119.76
    6 C                |   4 C                |  15 H                |   119.74
    2 C                |   5 C                |   6 C                |   120.49
    2 C                |   5 C                |  12 H                |   119.77
    6 C                |   5 C                |  12 H                |   119.74
    4 C                |   6 C                |   5 C                |   119.02
    4 C                |   6 C                |   7 C                |   120.50
    5 C                |   6 C                |   7 C                |   120.48
    6 C                |   7 C                |  11 N                |   179.96
   10 N                |   8 C                |  16 H                |   110.43
   10 N                |   8 C                |  17 H                |   112.92
   10 N                |   8 C                |  18 H                |   108.48
   16 H                |   8 C                |  17 H                |   108.70
   16 H                |   8 C                |  18 H                |   107.40
   17 H                |   8 C                |  18 H                |   108.74
   10 N                |   9 C                |  19 H                |   110.44
   10 N                |   9 C                |  20 H                |   112.92
   10 N                |   9 C                |  21 H                |   108.48
   19 H                |   9 C                |  20 H                |   108.70
   19 H                |   9 C                |  21 H                |   107.40
   20 H                |   9 C                |  21 H                |   108.73
    1 C                |  10 N                |   8 C                |   117.75
    1 C                |  10 N                |   9 C                |   117.76
    8 C                |  10 N                |   9 C                |   115.80
 ------------------------------------------------------------------------------
                            number of included internuclear angles:         34
 ==============================================================================





 Summary of "ao basis" -> "" (cartesian)
 ------------------------------------------------------------------------------
       Tag                 Description            Shells   Functions and Types
 ---------------- ------------------------------  ------  ---------------------
 *                         def2-TZVPD                 on all atoms 


  pbe96 is a nonlocal functional; adding pw91lda local functional. 

                                 NWChem DFT Module
                                 -----------------


                      Basis "ao basis" -> "ao basis" (cartesian)
                      -----
  C (Carbon)
  ----------
            Exponent  Coefficients 
       -------------- ---------------------------------------------------------
  1 S  1.35753497E+04  0.000222
  1 S  2.03523337E+03  0.001723
  1 S  4.63225624E+02  0.008926
  1 S  1.31200196E+02  0.035728
  1 S  4.28530159E+01  0.110763
  1 S  1.55841858E+01  0.242956

  2 S  6.20671385E+00  0.414403
  2 S  2.57648965E+00  0.237450

  3 S  5.76963394E-01  1.000000

  4 S  2.29728314E-01  1.000000

  5 S  9.51644400E-02  1.000000

  6 S  4.84754014E-02  1.000000

  7 P  3.46972322E+01  0.005333
  7 P  7.95826228E+00  0.035864
  7 P  2.37808269E+00  0.142159
  7 P  8.14332082E-01  0.342705

  8 P  2.88875473E-01  1.000000

  9 P  1.00568237E-01  1.000000

 10 D  1.09700000E+00  1.000000

 11 D  3.18000000E-01  1.000000

 12 D  9.09853364E-02  1.000000

 13 F  7.61000000E-01  1.000000

  N (Nitrogen)
  ------------
            Exponent  Coefficients 
       -------------- ---------------------------------------------------------
  1 S  1.97308006E+04  0.000219
  1 S  2.95789587E+03  0.001696
  1 S  6.73221336E+02  0.008795
  1 S  1.90682495E+02  0.035359
  1 S  6.22954419E+01  0.110958
  1 S  2.26541612E+01  0.249830

  2 S  8.97914774E+00  0.406239
  2 S  3.68630024E+00  0.243382

  3 S  8.46600768E-01  1.000000

  4 S  3.36471338E-01  1.000000

  5 S  1.36476537E-01  1.000000

  6 S  6.84416058E-02  1.000000

  7 P  4.92003805E+01  0.005555
  7 P  1.13467905E+01  0.038052
  7 P  3.42739724E+00  0.149537
  7 P  1.17855251E+00  0.349493

  8 P  4.16422050E-01  1.000000

  9 P  1.42608260E-01  1.000000

 10 D  1.65400000E+00  1.000000

 11 D  4.69000000E-01  1.000000

 12 D  1.28296421E-01  1.000000

 13 F  1.09300000E+00  1.000000

  H (Hydrogen)
  ------------
            Exponent  Coefficients 
       -------------- ---------------------------------------------------------
  1 S  3.40613410E+01  0.006025
  1 S  5.12357460E+00  0.045021
  1 S  1.16466260E+00  0.201897

  2 S  3.27230410E-01  1.000000

  3 S  1.03072410E-01  1.000000

  4 P  8.00000000E-01  1.000000

  5 P  9.57741296E-02  1.000000



 Summary of "ao basis" -> "ao basis" (cartesian)
 ------------------------------------------------------------------------------
       Tag                 Description            Shells   Functions and Types
 ---------------- ------------------------------  ------  ---------------------
 C                         def2-TZVPD               13       43   6s3p3d1f
 N                         def2-TZVPD               13       43   6s3p3d1f
 H                         def2-TZVPD                5        9   3s2p




 Summary of "ao basis" -> "ao basis" (cartesian)
 ------------------------------------------------------------------------------
       Tag                 Description            Shells   Functions and Types
 ---------------- ------------------------------  ------  ---------------------
 C                         def2-TZVPD               13       43   6s3p3d1f
 N                         def2-TZVPD               13       43   6s3p3d1f
 H                         def2-TZVPD                5        9   3s2p


  int_init: cando_txs set to always be  F
  Caching 1-el integrals 

            General Information
            -------------------
          SCF calculation type: DFT
          Wavefunction type:  closed shell.
          No. of atoms     :    21
          No. of electrons :    78
           Alpha electrons :    39
            Beta electrons :    39
          Charge           :     0
          Spin multiplicity:     1
          Use of symmetry is: off; symmetry adaption is: off
          Maximum number of iterations:  50
          AO basis - number of functions:   563
                     number of shells:   193
          Convergence on energy requested:  1.00D-06
          Convergence on density requested:  1.00D-05
          Convergence on gradient requested:  5.00D-04

              XC Information
              --------------
                     Hartree-Fock (Exact) Exchange  1.000          
                     LC-wPBE(h)Exchange Functional  1.000          
            Perdew 1991 LDA Correlation Functional  1.000 local    
           PerdewBurkeErnz. Correlation Functional  1.000 non-local

           Range-Separation Parameters        
           ---------------------------
           Alpha           :  0.00
           Beta            :  1.00
           Gamma           :  0.27
           Short-Range HF  :     F

             Grid Information
             ----------------
          Grid used for XC integration:  xfine     
          Radial quadrature: Mura-Knowles        
          Angular quadrature: Lebedev. 
          Tag              B.-S. Rad. Rad. Pts. Rad. Cut. Ang. Pts.
          ---              ---------- --------- --------- ---------
          C                   0.70      100          18.0      1454
          N                   0.65      100          20.0      1454
          H                   0.35      100          20.0      1202
          Grid pruning is: on 
          Number of quadrature shells:  2100
          Spatial weights used:  Erf1

          Convergence Information
          -----------------------
          Convergence aids based upon iterative change in 
          total energy or number of iterations. 
          Levelshifting, if invoked, occurs when the 
          HOMO/LUMO gap drops below (HL_TOL):  1.00D-02
          DIIS, if invoked, will attempt to extrapolate 
          using up to (NFOCK): 10 stored Fock matrices.

                    Damping( 0%)  Levelshifting(0.5)       DIIS
                  --------------- ------------------- ---------------
          dE  on:    start            ASAP                start   
          dE off:    2 iters         50 iters            50 iters 


      Screening Tolerance Information
      -------------------------------
          Density screening/tol_rho:  1.00D-10
          AO Gaussian exp screening on grid/accAOfunc:  14
          CD Gaussian exp screening on grid/accCDfunc:  20
          XC Gaussian exp screening on grid/accXCfunc:  20
          Schwarz screening/accCoul:  1.00D-08

  
  CAM type calculations without CDFIT are
  only available with the direct option.
  Forcing Direct SCF
  

 WARNING : Found    15 linear dependencies 
 S eigenvalue threshold:     1.00000E-05
 Smallest S eigenvalue :     1.42978E-08
 Largest  S eigenvalue :     8.96091E-06


 !! The overlap matrix has  15 vectors deemed linearly dependent with
    eigenvalues:
 1.43D-08 2.59D-07 3.02D-07 5.03D-07 6.86D-07 1.04D-06 1.55D-06 1.76D-06
 2.31D-06 2.45D-06 4.69D-06 4.97D-06 5.70D-06 6.57D-06 8.96D-06


      Superposition of Atomic Density Guess
      -------------------------------------

 Sum of atomic energies:        -452.66318133

      Non-variational initial energy
      ------------------------------

 Total energy =    -460.159093
 1-e energy   =   -1692.386786
 2-e energy   =     685.819255
 HOMO         =      -0.230231
 LUMO         =      -0.036868

  WARNING: movecs_in_org=atomic not equal to movecs_in=./dmabn.movecs
   Time after variat. SCF:     50.8
   Time prior to 1st pass:     50.8

 Grid_pts file          = ./dmabn.gridpts.00
 Record size in doubles =  12289        No. of grid_pts per rec  =   3070
 Max. records in memory =     24        Max. recs in file   =  21109390

 Grid integrated density:      77.753240089909
 Requested integration accuracy:   0.10E-07

           Memory utilization after 1st SCF pass: 
           Heap Space remaining (MW):     7864.15          7864145914
          Stack Space remaining (MW):    13107.20         13107196572

   convergence    iter        energy       DeltaE   RMS-Dens  Diis-err    time
 ---------------- ----- ----------------- --------- --------- ---------  ------
 d= 0,ls=0.0,diis     1   -455.0543395433 -1.00D+03  2.63D+02  1.11D+04   140.5
 Grid integrated density:      77.999980558246
 Requested integration accuracy:   0.10E-07
 d= 0,ls=0.5,diis     2   -434.2540567833  2.08D+01  2.39D+02  9.72D+01   246.9
 Grid integrated density:      78.000000872606
 Requested integration accuracy:   0.10E-07
 d= 0,ls=0.5,diis     3   -432.2815686402  1.97D+00  1.80D+01  1.39D+02   352.0
 Grid integrated density:      78.000006770674
 Requested integration accuracy:   0.10E-07
 d= 0,ls=0.5,diis     4   -453.1065232468 -2.08D+01  9.41D+01  2.36D+01   460.6
 d= 0,ls=0.5,diis     5   -458.0491817633 -4.94D+00  2.29D-01  8.14D-01   556.9
 Grid integrated density:      78.000001165288
 Requested integration accuracy:   0.10E-07
 d= 0,ls=0.5,diis     6   -458.1616989405 -1.13D-01  3.86D-02  1.39D-01   648.0
 Grid integrated density:      78.000001946667
 Requested integration accuracy:   0.10E-07
  Resetting Diis
 d= 0,ls=0.5,diis     7   -458.1831379883 -2.14D-02  9.05D-03  2.43D-02   736.6
 d= 0,ls=0.5,diis     8   -458.1889152286 -5.78D-03  2.59D-03  5.65D-03   829.7
 d= 0,ls=0.5,diis     9   -458.1905993852 -1.68D-03  8.20D-04  2.00D-03   923.7
 d= 0,ls=0.5,diis    10   -458.1912043843 -6.05D-04  4.41D-04  7.61D-04  1033.3
 d= 0,ls=0.5,diis    11   -458.1915067206 -3.02D-04  2.14D-04  2.60D-04  1130.5
 d= 0,ls=0.5,diis    12   -458.1916275485 -1.21D-04  1.31D-04  9.13D-05  1226.1
 d= 0,ls=0.5,diis    13   -458.1916782807 -5.07D-05  8.75D-05  3.33D-05  1318.5
 d= 0,ls=0.5,diis    14   -458.1916980320 -1.98D-05  5.93D-05  1.20D-05  1410.2
 d= 0,ls=0.5,diis    15   -458.1917058209 -7.79D-06  3.76D-05  4.69D-06  1504.9
 d= 0,ls=0.5,diis    16   -458.1917088283 -3.01D-06  2.34D-05  1.88D-06  1598.6
 d= 0,ls=0.5,diis    17   -458.1917100218 -1.19D-06  1.35D-05  7.94D-07  1694.2
 d= 0,ls=0.5,diis    18   -458.1917104851 -4.63D-07  7.37D-06  3.35D-07  1803.8


         Total DFT energy =     -458.191710661113
      One electron energy =    -1700.974004038625
           Coulomb energy =      762.261451973675
    Exchange-Corr. energy =      -65.887596170853
 Nuclear repulsion energy =      546.408437574689

 Numeric. integr. density =       78.000000589890

     Total iterative time =   1848.7s



                       DFT Final Molecular Orbital Analysis
                       ------------------------------------

 Vector    1  Occ=2.000000D+00  E=-1.417909D+01
              MO Center=  2.3D+00,  8.1D-05,  2.0D-01, r^2= 2.0D-02
   Bfn.  Coefficient  Atom+Function         Bfn.  Coefficient  Atom+Function  
  ----- ------------  ---------------      ----- ------------  ---------------
   389      0.619135  10 N  s               388      0.449514  10 N  s         
   391     -0.109156  10 N  s               390      0.099538  10 N  s         

 Vector    2  Occ=2.000000D+00  E=-1.412746D+01
              MO Center= -4.5D+00,  4.6D-04, -9.6D-02, r^2= 2.0D-02
   Bfn.  Coefficient  Atom+Function         Bfn.  Coefficient  Atom+Function  
  ----- ------------  ---------------      ----- ------------  ---------------
   432      0.619367  11 N  s               431      0.449392  11 N  s         
   434     -0.113995  11 N  s               433      0.096897  11 N  s         

 Vector    3  Occ=2.000000D+00  E=-1.010380D+01
              MO Center=  9.3D-01, -4.0D-05,  1.1D-01, r^2= 2.8D-02
   Bfn.  Coefficient  Atom+Function         Bfn.  Coefficient  Atom+Function  
  ----- ------------  ---------------      ----- ------------  ---------------
     2      0.599573   1 C  s                 1      0.468126   1 C  s         
     3      0.101027   1 C  s                 4     -0.099729   1 C  s         

 Vector    4  Occ=2.000000D+00  E=-1.008124D+01
              MO Center=  3.0D+00,  1.2D+00, -1.2D-01, r^2= 8.1D-02
   Bfn.  Coefficient  Atom+Function         Bfn.  Coefficient  Atom+Function  
  ----- ------------  ---------------      ----- ------------  ---------------
   303      0.596929   8 C  s               302      0.466107   8 C  s         
   305     -0.102075   8 C  s               304      0.100795   8 C  s         
   346     -0.056123   9 C  s               345     -0.043823   9 C  s         

 Vector    5  Occ=2.000000D+00  E=-1.008121D+01
              MO Center=  3.0D+00, -1.2D+00, -1.2D-01, r^2= 8.1D-02
   Bfn.  Coefficient  Atom+Function         Bfn.  Coefficient  Atom+Function  
  ----- ------------  ---------------      ----- ------------  ---------------
   346      0.596930   9 C  s               345      0.466107   9 C  s         
   348     -0.102145   9 C  s               347      0.100853   9 C  s         
   303      0.056128   8 C  s               302      0.043827   8 C  s         

 Vector    6  Occ=2.000000D+00  E=-1.007631D+01
              MO Center= -1.9D+00, -2.5D-04,  7.4D-03, r^2= 3.1D-02
   Bfn.  Coefficient  Atom+Function         Bfn.  Coefficient  Atom+Function  
  ----- ------------  ---------------      ----- ------------  ---------------
   217      0.599023   6 C  s               216      0.467787   6 C  s         
   218      0.101989   6 C  s               219     -0.100159   6 C  s         

 Vector    7  Occ=2.000000D+00  E=-1.007092D+01
              MO Center= -3.3D+00, -2.2D-04, -4.9D-02, r^2= 2.9D-02
   Bfn.  Coefficient  Atom+Function         Bfn.  Coefficient  Atom+Function  
  ----- ------------  ---------------      ----- ------------  ---------------
   260      0.599014   7 C  s               259      0.467780   7 C  s         
   262     -0.127541   7 C  s               261      0.105640   7 C  s         

 Vector    8  Occ=2.000000D+00  E=-1.006581D+01
              MO Center= -1.2D+00,  4.0D-01,  2.8D-02, r^2= 1.3D+00
   Bfn.  Coefficient  Atom+Function         Bfn.  Coefficient  Atom+Function  
  ----- ------------  ---------------      ----- ------------  ---------------
   174      0.488270   5 C  s               173      0.381247   5 C  s         
   131     -0.347604   4 C  s               130     -0.271411   4 C  s         
   175      0.083412   5 C  s               176     -0.082197   5 C  s         
   132     -0.059358   4 C  s               133      0.058325   4 C  s         

 Vector    9  Occ=2.000000D+00  E=-1.006579D+01
              MO Center= -1.2D+00, -4.0D-01,  2.8D-02, r^2= 1.3D+00
   Bfn.  Coefficient  Atom+Function         Bfn.  Coefficient  Atom+Function  
  ----- ------------  ---------------      ----- ------------  ---------------
   131      0.488158   4 C  s               130      0.381165   4 C  s         
   174      0.347447   5 C  s               173      0.271296   5 C  s         
   132      0.083462   4 C  s               133     -0.082735   4 C  s         
   175      0.059428   5 C  s               176     -0.059079   5 C  s         

 Vector   10  Occ=2.000000D+00  E=-1.005450D+01
              MO Center=  1.9D-01, -1.2D+00,  7.8D-02, r^2= 2.9D-02
   Bfn.  Coefficient  Atom+Function         Bfn.  Coefficient  Atom+Function  
  ----- ------------  ---------------      ----- ------------  ---------------
    88      0.599316   3 C  s                87      0.467995   3 C  s         
    89      0.102585   3 C  s                90     -0.101601   3 C  s         

 Vector   11  Occ=2.000000D+00  E=-1.005449D+01
              MO Center=  1.9D-01,  1.2D+00,  7.8D-02, r^2= 2.9D-02
   Bfn.  Coefficient  Atom+Function         Bfn.  Coefficient  Atom+Function  
  ----- ------------  ---------------      ----- ------------  ---------------
    45      0.599317   2 C  s                44      0.467995   2 C  s         
    46      0.102585   2 C  s                47     -0.101598   2 C  s         

 Vector   12  Occ=2.000000D+00  E=-1.044350D+00
              MO Center=  2.1D+00,  9.9D-05,  7.8D-02, r^2= 1.4D+00
   Bfn.  Coefficient  Atom+Function         Bfn.  Coefficient  Atom+Function  
  ----- ------------  ---------------      ----- ------------  ---------------
   391      0.317204  10 N  s               390      0.256448  10 N  s         
   389     -0.175815  10 N  s                 3      0.141846   1 C  s         
     4      0.129061   1 C  s               305      0.104551   8 C  s         
   348      0.104542   9 C  s               304      0.094300   8 C  s         
   347      0.094291   9 C  s                 2     -0.092294   1 C  s         

 Vector   13  Occ=2.000000D+00  E=-9.662804D-01
              MO Center= -2.7D+00,  3.9D-05, -2.9D-02, r^2= 3.6D+00
   Bfn.  Coefficient  Atom+Function         Bfn.  Coefficient  Atom+Function  
  ----- ------------  ---------------      ----- ------------  ---------------
   433      0.222843  11 N  s               261      0.221500   7 C  s         
   262      0.214756   7 C  s               218      0.153338   6 C  s         
   260     -0.131333   7 C  s               432     -0.130977  11 N  s         
   434      0.108691  11 N  s               437      0.108750  11 N  px        
   132      0.096074   4 C  s               175      0.096069   5 C  s         

 Vector   14  Occ=2.000000D+00  E=-9.416817D-01
              MO Center= -1.8D+00, -4.1D-05, -3.3D-03, r^2= 5.6D+00
   Bfn.  Coefficient  Atom+Function         Bfn.  Coefficient  Atom+Function  
  ----- ------------  ---------------      ----- ------------  ---------------
   262      0.237214   7 C  s               433      0.212323  11 N  s         
   219     -0.184254   6 C  s               261      0.141145   7 C  s         
   265     -0.133041   7 C  px              432     -0.124054  11 N  s         
   132     -0.113786   4 C  s               175     -0.113781   5 C  s         
    46     -0.106780   2 C  s                89     -0.106794   3 C  s         

 Vector   15  Occ=2.000000D+00  E=-8.597997D-01
              MO Center= -1.5D-01, -6.9D-05,  3.0D-02, r^2= 5.6D+00
   Bfn.  Coefficient  Atom+Function         Bfn.  Coefficient  Atom+Function  
  ----- ------------  ---------------      ----- ------------  ---------------
   219      0.247583   6 C  s                 4     -0.214891   1 C  s         
   218      0.187789   6 C  s                 3     -0.183545   1 C  s         
   265      0.120617   7 C  px              217     -0.116292   6 C  s         
     2      0.113715   1 C  s                46     -0.103102   2 C  s         
    89     -0.103093   3 C  s               305      0.100626   8 C  s         

 Vector   16  Occ=2.000000D+00  E=-8.533235D-01
              MO Center=  1.4D-01, -5.1D-05,  4.0D-02, r^2= 4.2D+00
   Bfn.  Coefficient  Atom+Function         Bfn.  Coefficient  Atom+Function  
  ----- ------------  ---------------      ----- ------------  ---------------
    46      0.170913   2 C  s                89     -0.170909   3 C  s         
    47      0.165786   2 C  s                90     -0.165773   3 C  s         
   132     -0.157800   4 C  s               175      0.157805   5 C  s         
   133     -0.137869   4 C  s               176      0.137853   5 C  s         
    45     -0.104216   2 C  s                88      0.104213   3 C  s         

 Vector   17  Occ=2.000000D+00  E=-8.218761D-01
              MO Center=  2.1D+00,  1.8D-04, -4.3D-02, r^2= 5.0D+00
   Bfn.  Coefficient  Atom+Function         Bfn.  Coefficient  Atom+Function  
  ----- ------------  ---------------      ----- ------------  ---------------
   305      0.239321   8 C  s               348     -0.239306   9 C  s         
   304      0.187827   8 C  s               347     -0.187806   9 C  s         
   395      0.137910  10 N  py              303     -0.123351   8 C  s         
   346      0.123340   9 C  s               133      0.105288   4 C  s         
   176     -0.105287   5 C  s               132      0.103035   4 C  s         

 Vector   18  Occ=2.000000D+00  E=-7.763663D-01
              MO Center=  9.8D-01, -4.6D-05, -8.0D-03, r^2= 7.0D+00
   Bfn.  Coefficient  Atom+Function         Bfn.  Coefficient  Atom+Function  
  ----- ------------  ---------------      ----- ------------  ---------------
   305      0.154964   8 C  s               348      0.155008   9 C  s         
   219     -0.143371   6 C  s               394      0.139136  10 N  px        
     4     -0.131988   1 C  s                 7     -0.121885   1 C  px        
   304      0.122239   8 C  s               347      0.122264   9 C  s         
   218     -0.119783   6 C  s               391     -0.117710  10 N  s         

 Vector   19  Occ=2.000000D+00  E=-7.101709D-01
              MO Center= -2.6D-01, -1.5D-04,  3.5D-02, r^2= 4.6D+00
   Bfn.  Coefficient  Atom+Function         Bfn.  Coefficient  Atom+Function  
  ----- ------------  ---------------      ----- ------------  ---------------
   133      0.178348   4 C  s               176     -0.178351   5 C  s         
    47      0.176014   2 C  s                90     -0.176024   3 C  s         
   223     -0.157422   6 C  py                8      0.156551   1 C  py        
    46      0.149222   2 C  s                89     -0.149228   3 C  s         
   132      0.141590   4 C  s               175     -0.141577   5 C  s         

 Vector   20  Occ=2.000000D+00  E=-6.960563D-01
              MO Center=  4.3D-01, -3.3D-05, -2.9D-02, r^2= 7.3D+00
   Bfn.  Coefficient  Atom+Function         Bfn.  Coefficient  Atom+Function  
  ----- ------------  ---------------      ----- ------------  ---------------
   391      0.184787  10 N  s                 4     -0.152699   1 C  s         
   133      0.137443   4 C  s               176      0.137482   5 C  s         
     3     -0.125062   1 C  s               265     -0.120973   7 C  px        
   390      0.120577  10 N  s               132      0.116881   4 C  s         
   175      0.116887   5 C  s               222      0.116955   6 C  px        

 Vector   21  Occ=2.000000D+00  E=-6.522500D-01
              MO Center= -4.8D-01, -1.3D-04,  4.2D-02, r^2= 4.7D+00
   Bfn.  Coefficient  Atom+Function         Bfn.  Coefficient  Atom+Function  
  ----- ------------  ---------------      ----- ------------  ---------------
   222      0.169966   6 C  px              306     -0.144288   8 C  s         
   349     -0.144333   9 C  s               137      0.142121   4 C  py        
   180     -0.142108   5 C  py               51     -0.139682   2 C  py        
    94      0.139679   3 C  py              262     -0.135709   7 C  s         
   268     -0.108959   7 C  px               13      0.108133   1 C  px        

 Vector   22  Occ=2.000000D+00  E=-6.108892D-01
              MO Center=  1.2D+00,  8.7D-05, -1.7D-02, r^2= 6.8D+00
   Bfn.  Coefficient  Atom+Function         Bfn.  Coefficient  Atom+Function  
  ----- ------------  ---------------      ----- ------------  ---------------
   394      0.215992  10 N  px              306     -0.188188   8 C  s         
   349     -0.188321   9 C  s                 7     -0.149815   1 C  px        
   309     -0.148429   8 C  py              352      0.148417   9 C  py        
   222     -0.145531   6 C  px              400      0.136294  10 N  px        
    13      0.124164   1 C  px              397      0.114932  10 N  px        

 Vector   23  Occ=2.000000D+00  E=-5.894505D-01
              MO Center=  9.5D-01,  2.1D-05, -4.9D-03, r^2= 6.0D+00
   Bfn.  Coefficient  Atom+Function         Bfn.  Coefficient  Atom+Function  
  ----- ------------  ---------------      ----- ------------  ---------------
   395      0.184783  10 N  py               29     -0.162995   1 C  dxy       
     8      0.153659   1 C  py              223      0.152042   6 C  py        
   136      0.138275   4 C  px              179     -0.138270   5 C  px        
   401      0.134805  10 N  py              244      0.127287   6 C  dxy       
    50      0.117748   2 C  px               93     -0.117746   3 C  px        

 Vector   24  Occ=2.000000D+00  E=-5.737571D-01
              MO Center=  2.5D+00,  2.5D-04, -5.8D-02, r^2= 3.0D+00
   Bfn.  Coefficient  Atom+Function         Bfn.  Coefficient  Atom+Function  
  ----- ------------  ---------------      ----- ------------  ---------------
   393      0.258231  10 N  s               396      0.199295  10 N  pz        
   310      0.182746   8 C  pz              353      0.182700   9 C  pz        
   399      0.164493  10 N  pz              316      0.148026   8 C  pz        
   359      0.147896   9 C  pz              313      0.120638   8 C  pz        
   356      0.120619   9 C  pz                9      0.105811   1 C  pz        

 Vector   25  Occ=2.000000D+00  E=-5.521796D-01
              MO Center=  1.8D-02, -1.9D-06,  2.9D-02, r^2= 6.8D+00
   Bfn.  Coefficient  Atom+Function         Bfn.  Coefficient  Atom+Function  
  ----- ------------  ---------------      ----- ------------  ---------------
     4      0.147432   1 C  s               137     -0.145621   4 C  py        
   180      0.145580   5 C  py                3      0.128937   1 C  s         
   475      0.128297  12 H  s               502      0.128323  15 H  s         
   219     -0.121328   6 C  s                28      0.113260   1 C  dxx       
    51     -0.109537   2 C  py               94      0.109491   3 C  py        

 Vector   26  Occ=2.000000D+00  E=-5.297988D-01
              MO Center=  1.0D+00, -9.1D-05, -6.7D-02, r^2= 6.3D+00
   Bfn.  Coefficient  Atom+Function         Bfn.  Coefficient  Atom+Function  
  ----- ------------  ---------------      ----- ------------  ---------------
   395      0.194633  10 N  py              223     -0.158408   6 C  py        
   401      0.144636  10 N  py               14     -0.140842   1 C  py        
     8     -0.132865   1 C  py              398      0.127479  10 N  py        
   137      0.125500   4 C  py              180      0.125523   5 C  py        
   244     -0.121932   6 C  dxy             310      0.108782   8 C  pz        

 Vector   27  Occ=2.000000D+00  E=-5.244125D-01
              MO Center=  6.0D-02, -1.6D-04,  3.9D-02, r^2= 5.0D+00
   Bfn.  Coefficient  Atom+Function         Bfn.  Coefficient  Atom+Function  
  ----- ------------  ---------------      ----- ------------  ---------------
   244      0.163953   6 C  dxy              51      0.141858   2 C  py        
    94      0.141910   3 C  py               50      0.136024   2 C  px        
    93     -0.136056   3 C  px              136      0.135441   4 C  px        
   179     -0.135468   5 C  px              484      0.131510  13 H  s         
   493     -0.131558  14 H  s               137      0.114507   4 C  py        

 Vector   28  Occ=2.000000D+00  E=-5.065942D-01
              MO Center=  2.8D+00,  3.2D-04, -2.4D-01, r^2= 4.1D+00
   Bfn.  Coefficient  Atom+Function         Bfn.  Coefficient  Atom+Function  
  ----- ------------  ---------------      ----- ------------  ---------------
   316      0.233958   8 C  pz              359     -0.233910   9 C  pz        
   310      0.206970   8 C  pz              353     -0.206947   9 C  pz        
   521      0.184295  17 H  s               548     -0.184096  20 H  s         
   520     -0.153074  17 H  s               547      0.153011  20 H  s         
   313      0.138844   8 C  pz              356     -0.138833   9 C  pz        

 Vector   29  Occ=2.000000D+00  E=-5.026817D-01
              MO Center=  1.4D+00, -5.7D-05,  4.6D-02, r^2= 7.3D+00
   Bfn.  Coefficient  Atom+Function         Bfn.  Coefficient  Atom+Function  
  ----- ------------  ---------------      ----- ------------  ---------------
   306     -0.163482   8 C  s               349     -0.163738   9 C  s         
   308      0.151920   8 C  px              351      0.152000   9 C  px        
    28      0.149286   1 C  dxx             529      0.122279  18 H  s         
   556      0.122435  21 H  s               219      0.110128   6 C  s         
   262     -0.109910   7 C  s               314      0.107711   8 C  px        

 Vector   30  Occ=2.000000D+00  E=-4.983963D-01
              MO Center= -8.5D-01, -4.6D-04, -2.3D-02, r^2= 5.0D+00
   Bfn.  Coefficient  Atom+Function         Bfn.  Coefficient  Atom+Function  
  ----- ------------  ---------------      ----- ------------  ---------------
   224      0.179759   6 C  pz              227      0.147834   6 C  pz        
   138      0.142038   4 C  pz              181      0.142037   5 C  pz        
   267      0.124997   7 C  pz              141      0.120387   4 C  pz        
   184      0.120388   5 C  pz                9      0.113478   1 C  pz        
    52      0.113301   2 C  pz               95      0.113290   3 C  pz        

 Vector   31  Occ=2.000000D+00  E=-4.803799D-01
              MO Center=  1.2D-01,  1.6D-04,  3.9D-02, r^2= 7.2D+00
   Bfn.  Coefficient  Atom+Function         Bfn.  Coefficient  Atom+Function  
  ----- ------------  ---------------      ----- ------------  ---------------
   394     -0.184910  10 N  px                7      0.170022   1 C  px        
   136      0.170017   4 C  px              179      0.169551   5 C  px        
    50     -0.159559   2 C  px               93     -0.160177   3 C  px        
   262      0.127001   7 C  s                10      0.117732   1 C  px        
   397     -0.113512  10 N  px              400     -0.114055  10 N  px        

 Vector   32  Occ=2.000000D+00  E=-4.795118D-01
              MO Center=  2.3D+00, -3.0D-05,  3.3D-02, r^2= 6.1D+00
   Bfn.  Coefficient  Atom+Function         Bfn.  Coefficient  Atom+Function  
  ----- ------------  ---------------      ----- ------------  ---------------
   314      0.205526   8 C  px              357     -0.206226   9 C  px        
   309     -0.162889   8 C  py              352     -0.162679   9 C  py        
   351     -0.154387   9 C  px              308      0.153568   8 C  px        
   556     -0.144623  21 H  s               529      0.143848  18 H  s         
   315     -0.135902   8 C  py              358     -0.136205   9 C  py        

 Vector   33  Occ=2.000000D+00  E=-4.413735D-01
              MO Center= -3.7D-01,  7.4D-05,  4.2D-02, r^2= 6.8D+00
   Bfn.  Coefficient  Atom+Function         Bfn.  Coefficient  Atom+Function  
  ----- ------------  ---------------      ----- ------------  ---------------
     8      0.194831   1 C  py               51     -0.167660   2 C  py        
    94     -0.167662   3 C  py               57     -0.132386   2 C  py        
   100     -0.132388   3 C  py              266     -0.131417   7 C  py        
   223     -0.130559   6 C  py               14      0.126227   1 C  py        
    11      0.121809   1 C  py              137      0.121802   4 C  py        

 Vector   34  Occ=2.000000D+00  E=-4.402245D-01
              MO Center= -1.5D+00, -3.4D-05, -5.5D-02, r^2= 8.5D+00
   Bfn.  Coefficient  Atom+Function         Bfn.  Coefficient  Atom+Function  
  ----- ------------  ---------------      ----- ------------  ---------------
   267      0.224263   7 C  pz              439      0.214345  11 N  pz        
   270      0.182355   7 C  pz                9     -0.175770   1 C  pz        
   442      0.173003  11 N  pz               12     -0.144891   1 C  pz        
    52     -0.103788   2 C  pz               95     -0.103783   3 C  pz        
   224      0.097690   6 C  pz               55     -0.090452   2 C  pz        

 Vector   35  Occ=2.000000D+00  E=-4.338578D-01
              MO Center= -4.3D+00,  5.7D-04, -6.5D-02, r^2= 2.6D+00
   Bfn.  Coefficient  Atom+Function         Bfn.  Coefficient  Atom+Function  
  ----- ------------  ---------------      ----- ------------  ---------------
   434      0.413733  11 N  s               437     -0.357506  11 N  px        
   262     -0.315052   7 C  s               435      0.250985  11 N  s         
   265      0.220272   7 C  px              268      0.189939   7 C  px        
   433      0.183391  11 N  s               436      0.176576  11 N  s         
   219      0.145184   6 C  s               440     -0.136568  11 N  px        

 Vector   36  Occ=2.000000D+00  E=-4.066217D-01
              MO Center= -3.3D+00, -3.2D-05, -5.1D-02, r^2= 3.7D+00
   Bfn.  Coefficient  Atom+Function         Bfn.  Coefficient  Atom+Function  
  ----- ------------  ---------------      ----- ------------  ---------------
   438      0.305892  11 N  py              266      0.259717   7 C  py        
   441      0.246489  11 N  py              269      0.217574   7 C  py        
   444      0.137912  11 N  py              244     -0.135782   6 C  dxy       
   223     -0.124614   6 C  py              135     -0.093835   4 C  s         
   178      0.093916   5 C  s               137      0.090866   4 C  py        

 Vector   37  Occ=2.000000D+00  E=-3.806089D-01
              MO Center= -6.1D-01, -8.7D-05, -4.5D-03, r^2= 9.5D+00
   Bfn.  Coefficient  Atom+Function         Bfn.  Coefficient  Atom+Function  
  ----- ------------  ---------------      ----- ------------  ---------------
   396      0.215033  10 N  pz              439      0.208635  11 N  pz        
   399      0.184149  10 N  pz              442      0.169607  11 N  pz        
   267      0.144549   7 C  pz                9      0.137247   1 C  pz        
   402      0.134588  10 N  pz              224     -0.133585   6 C  pz        
   393      0.131039  10 N  s               138     -0.118900   4 C  pz        

 Vector   38  Occ=2.000000D+00  E=-3.598683D-01
              MO Center= -4.9D-01, -3.8D-06,  5.2D-02, r^2= 3.1D+00
   Bfn.  Coefficient  Atom+Function         Bfn.  Coefficient  Atom+Function  
  ----- ------------  ---------------      ----- ------------  ---------------
   138     -0.216669   4 C  pz              181      0.216714   5 C  pz        
    52      0.214682   2 C  pz               95     -0.214679   3 C  pz        
    55      0.187471   2 C  pz               98     -0.187465   3 C  pz        
   141     -0.186205   4 C  pz              184      0.186246   5 C  pz        
    58      0.131898   2 C  pz              101     -0.131894   3 C  pz        

 Vector   39  Occ=2.000000D+00  E=-2.945490D-01
              MO Center=  4.1D-01,  2.7D-06,  7.0D-02, r^2= 6.6D+00
   Bfn.  Coefficient  Atom+Function         Bfn.  Coefficient  Atom+Function  
  ----- ------------  ---------------      ----- ------------  ---------------
   396      0.286669  10 N  pz              399      0.250689  10 N  pz        
   402      0.211102  10 N  pz              224      0.191244   6 C  pz        
   227      0.167190   6 C  pz               52     -0.146370   2 C  pz        
    95     -0.146360   3 C  pz              316     -0.143844   8 C  pz        
   359     -0.143776   9 C  pz              439     -0.131994  11 N  pz        

 Vector   40  Occ=0.000000D+00  E= 2.032478D-02
              MO Center= -9.0D-01, -1.5D-06, -1.3D-02, r^2= 7.4D+00
   Bfn.  Coefficient  Atom+Function         Bfn.  Coefficient  Atom+Function  
  ----- ------------  ---------------      ----- ------------  ---------------
   307      0.826399   8 C  s               350      0.826269   9 C  s         
   306     -0.717822   8 C  s               349     -0.718060   9 C  s         
   393     -0.506866  10 N  s               392     -0.495754  10 N  s         
   221     -0.404917   6 C  s                13      0.392188   1 C  px        
   512      0.341138  16 H  s               539      0.341042  19 H  s         

 Vector   41  Occ=0.000000D+00  E= 3.644846D-02
              MO Center= -4.6D-01, -4.1D-05,  6.6D-02, r^2= 4.3D+00
   Bfn.  Coefficient  Atom+Function         Bfn.  Coefficient  Atom+Function  
  ----- ------------  ---------------      ----- ------------  ---------------
   512      0.578316  16 H  s               539     -0.579708  19 H  s         
   521     -0.532555  17 H  s               548      0.531270  20 H  s         
   485     -0.490495  13 H  s               494      0.488731  14 H  s         
    49     -0.378121   2 C  s                92      0.377192   3 C  s         
   316     -0.347274   8 C  pz              359      0.347175   9 C  pz        

 Vector   42  Occ=0.000000D+00  E= 3.866540D-02
              MO Center=  2.7D+00, -1.3D-05, -2.5D-01, r^2= 1.7D+01
   Bfn.  Coefficient  Atom+Function         Bfn.  Coefficient  Atom+Function  
  ----- ------------  ---------------      ----- ------------  ---------------
   307      4.414785   8 C  s               350      4.414713   9 C  s         
   221     -3.723004   6 C  s               393     -3.712965  10 N  s         
   306     -3.488836   8 C  s               349     -3.488266   9 C  s         
   392     -2.759296  10 N  s                 6     -2.629814   1 C  s         
   135      2.160551   4 C  s               178      2.160383   5 C  s         

 Vector   43  Occ=0.000000D+00  E= 5.860689D-02
              MO Center=  2.4D+00,  5.2D-06, -1.1D-01, r^2= 2.0D+01
   Bfn.  Coefficient  Atom+Function         Bfn.  Coefficient  Atom+Function  
  ----- ------------  ---------------      ----- ------------  ---------------
   307      5.475801   8 C  s               350     -5.475232   9 C  s         
   135     -1.912333   4 C  s               178      1.912487   5 C  s         
   485      1.813821  13 H  s               494     -1.811199  14 H  s         
    29     -1.788450   1 C  dxy              49      1.675314   2 C  s         
    92     -1.676591   3 C  s                14     -1.641367   1 C  py        

 Vector   44  Occ=0.000000D+00  E= 6.283193D-02
              MO Center= -3.7D-01, -1.0D-03,  9.2D-03, r^2= 2.4D+01
   Bfn.  Coefficient  Atom+Function         Bfn.  Coefficient  Atom+Function  
  ----- ------------  ---------------      ----- ------------  ---------------
   221      8.237007   6 C  s               264     -6.561501   7 C  s         
   286      4.072379   7 C  dxx             135     -3.960631   4 C  s         
   178     -3.959557   5 C  s                49     -2.806793   2 C  s         
    92     -2.807557   3 C  s               307      2.645967   8 C  s         
   350      2.648660   9 C  s               243      2.464076   6 C  dxx       

 Vector   45  Occ=0.000000D+00  E= 8.463848D-02
              MO Center=  2.7D-01,  1.2D-03, -2.3D-02, r^2= 2.4D+01
   Bfn.  Coefficient  Atom+Function         Bfn.  Coefficient  Atom+Function  
  ----- ------------  ---------------      ----- ------------  ---------------
   135      5.415341   4 C  s               178     -5.410600   5 C  s         
   307      4.365880   8 C  s               350     -4.362307   9 C  s         
   530     -2.708658  18 H  s               557      2.696138  21 H  s         
   229      1.797628   6 C  py              160     -1.696987   4 C  dyy       
   203      1.696781   5 C  dyy             244     -1.679848   6 C  dxy       

 Vector   46  Occ=0.000000D+00  E= 9.042498D-02
              MO Center=  2.4D-01, -1.4D-03,  5.6D-02, r^2= 2.3D+01
   Bfn.  Coefficient  Atom+Function         Bfn.  Coefficient  Atom+Function  
  ----- ------------  ---------------      ----- ------------  ---------------
     6      9.165233   1 C  s                49     -6.677278   2 C  s         
    92     -6.687753   3 C  s               530     -6.676025  18 H  s         
   557     -6.682143  21 H  s               485      5.357171  13 H  s         
   494      5.355222  14 H  s               264      4.968768   7 C  s         
   314      3.975821   8 C  px              357      3.978297   9 C  px        

 Vector   47  Occ=0.000000D+00  E= 9.109731D-02
              MO Center=  9.1D-01, -1.7D-04,  1.4D-01, r^2= 1.6D+01
   Bfn.  Coefficient  Atom+Function         Bfn.  Coefficient  Atom+Function  
  ----- ------------  ---------------      ----- ------------  ---------------
     6     10.738245   1 C  s               221      8.095153   6 C  s         
   264     -3.765281   7 C  s                28     -3.466783   1 C  dxx       
   135     -3.421719   4 C  s               178     -3.422939   5 C  s         
   521     -2.281298  17 H  s               548     -2.281109  20 H  s         
    31     -2.123171   1 C  dyy              33     -2.107138   1 C  dzz       

 Vector   48  Occ=0.000000D+00  E= 1.050091D-01
              MO Center= -3.0D+00,  8.7D-04, -4.8D-02, r^2= 7.6D+00
   Bfn.  Coefficient  Atom+Function         Bfn.  Coefficient  Atom+Function  
  ----- ------------  ---------------      ----- ------------  ---------------
    49      3.719504   2 C  s                92     -3.711787   3 C  s         
   178     -2.444454   5 C  s               135      2.421538   4 C  s         
   307     -1.911367   8 C  s               350      1.909787   9 C  s         
   530      1.328328  18 H  s               557     -1.302249  21 H  s         
   287     -0.966275   7 C  dxy             272     -0.861881   7 C  py        

 Vector   49  Occ=0.000000D+00  E= 1.122719D-01
              MO Center=  2.4D+00,  5.0D-05, -2.5D-01, r^2= 1.3D+01
   Bfn.  Coefficient  Atom+Function         Bfn.  Coefficient  Atom+Function  
  ----- ------------  ---------------      ----- ------------  ---------------
   393     17.052061  10 N  s               521      6.673704  17 H  s         
   548      6.665831  20 H  s               530     -5.930564  18 H  s         
   557     -5.920168  21 H  s               485     -3.006670  13 H  s         
   494     -3.005567  14 H  s               314      2.868344   8 C  px        
   357      2.866373   9 C  px              221     -2.723133   6 C  s         

 Vector   50  Occ=0.000000D+00  E= 1.200097D-01
              MO Center=  4.7D-01, -6.8D-04,  8.3D-02, r^2= 2.4D+01
   Bfn.  Coefficient  Atom+Function         Bfn.  Coefficient  Atom+Function  
  ----- ------------  ---------------      ----- ------------  ---------------
   530      6.275737  18 H  s               557      6.280777  21 H  s         
   264      6.116624   7 C  s               135     -4.714221   4 C  s         
   178     -4.708490   5 C  s               314     -4.310388   8 C  px        
   357     -4.311987   9 C  px              392     -4.319886  10 N  s         
   286     -3.938346   7 C  dxx             512     -3.881966  16 H  s         

 Vector   51  Occ=0.000000D+00  E= 1.245262D-01
              MO Center= -1.3D-01,  2.5D-06,  2.3D-01, r^2= 2.3D+01
   Bfn.  Coefficient  Atom+Function         Bfn.  Coefficient  Atom+Function  
  ----- ------------  ---------------      ----- ------------  ---------------
    49     12.202798   2 C  s                92    -12.204556   3 C  s         
   135     10.405398   4 C  s               178    -10.403649   5 C  s         
   512     -3.891942  16 H  s               539      3.895257  19 H  s         
   530      3.497273  18 H  s               557     -3.499963  21 H  s         
   307     -3.257687   8 C  s               350      3.258606   9 C  s         

 Vector   52  Occ=0.000000D+00  E= 1.330922D-01
              MO Center=  1.7D-01,  3.5D-04, -4.5D-01, r^2= 1.8D+01
   Bfn.  Coefficient  Atom+Function         Bfn.  Coefficient  Atom+Function  
  ----- ------------  ---------------      ----- ------------  ---------------
   221     17.087882   6 C  s                 6     -6.428307   1 C  s         
   476      6.418056  12 H  s               503      6.420455  15 H  s         
   264     -5.183976   7 C  s               135     -4.444053   4 C  s         
   178     -4.432118   5 C  s               392     -4.411129  10 N  s         
   521      3.909190  17 H  s               548      3.869349  20 H  s         

 Vector   53  Occ=0.000000D+00  E= 1.363829D-01
              MO Center=  2.2D+00, -1.6D-03, -7.7D-01, r^2= 1.5D+01
   Bfn.  Coefficient  Atom+Function         Bfn.  Coefficient  Atom+Function  
  ----- ------------  ---------------      ----- ------------  ---------------
   521     -8.661898  17 H  s               548      8.684883  20 H  s         
   512      8.476542  16 H  s               539     -8.470717  19 H  s         
   316     -5.510082   8 C  pz              359      5.520511   9 C  pz        
    49      3.897208   2 C  s                92     -3.882670   3 C  s         
   331      2.608322   8 C  dxz             374     -2.610890   9 C  dxz       

 Vector   54  Occ=0.000000D+00  E= 1.419535D-01
              MO Center= -8.3D-01,  5.1D-04,  2.4D-02, r^2= 1.7D+01
   Bfn.  Coefficient  Atom+Function         Bfn.  Coefficient  Atom+Function  
  ----- ------------  ---------------      ----- ------------  ---------------
   286      4.072923   7 C  dxx             135      3.838074   4 C  s         
   178      3.849503   5 C  s               264     -3.684081   7 C  s         
    49     -3.660715   2 C  s                92     -3.644500   3 C  s         
   521      3.392691  17 H  s               548      3.389803  20 H  s         
   306     -2.947956   8 C  s               349     -2.950913   9 C  s         

 Vector   55  Occ=0.000000D+00  E= 1.482098D-01
              MO Center=  1.8D+00, -5.6D-04,  2.7D-01, r^2= 1.9D+01
   Bfn.  Coefficient  Atom+Function         Bfn.  Coefficient  Atom+Function  
  ----- ------------  ---------------      ----- ------------  ---------------
   221     -8.944992   6 C  s               135      8.442667   4 C  s         
   178      8.437627   5 C  s               306     -8.345341   8 C  s         
   349     -8.345259   9 C  s                49     -8.221292   2 C  s         
    92     -8.230997   3 C  s                 6      7.490030   1 C  s         
   392     -7.071483  10 N  s               530      5.391604  18 H  s         

 Vector   56  Occ=0.000000D+00  E= 1.539231D-01
              MO Center=  6.5D-01,  1.6D-03, -3.9D-01, r^2= 1.9D+01
   Bfn.  Coefficient  Atom+Function         Bfn.  Coefficient  Atom+Function  
  ----- ------------  ---------------      ----- ------------  ---------------
     6      8.504740   1 C  s                49     -6.184792   2 C  s         
    92     -6.172407   3 C  s               521      4.729780  17 H  s         
   548      4.730291  20 H  s               476     -4.008722  12 H  s         
   503     -4.010061  15 H  s               286      3.814051   7 C  dxx       
   135      3.674646   4 C  s               178      3.682344   5 C  s         

 Vector   57  Occ=0.000000D+00  E= 1.658596D-01
              MO Center=  1.2D+00, -2.0D-04,  2.9D-01, r^2= 1.5D+01
   Bfn.  Coefficient  Atom+Function         Bfn.  Coefficient  Atom+Function  
  ----- ------------  ---------------      ----- ------------  ---------------
   485     12.370854  13 H  s               494    -12.371127  14 H  s         
   476      8.849379  12 H  s               503     -8.848237  15 H  s         
    48     -6.698795   2 C  s                91      6.700225   3 C  s         
   134      6.528808   4 C  s               177     -6.527373   5 C  s         
    57     -5.030249   2 C  py              100     -5.029599   3 C  py        

 Vector   58  Occ=0.000000D+00  E= 1.750634D-01
              MO Center= -2.0D+00, -4.5D-03,  9.3D-02, r^2= 2.4D+01
   Bfn.  Coefficient  Atom+Function         Bfn.  Coefficient  Atom+Function  
  ----- ------------  ---------------      ----- ------------  ---------------
   221     15.317910   6 C  s               286      9.532242   7 C  dxx       
   436     -8.705542  11 N  s               485     -6.773622  13 H  s         
   494     -6.799424  14 H  s               135     -5.851612   4 C  s         
   178     -5.851429   5 C  s               548     -4.066638  20 H  s         
   521     -4.044786  17 H  s               557      3.768670  21 H  s         

 Vector   59  Occ=0.000000D+00  E= 1.798896D-01
              MO Center=  1.2D+00,  6.1D-03,  2.0D-01, r^2= 2.0D+01
   Bfn.  Coefficient  Atom+Function         Bfn.  Coefficient  Atom+Function  
  ----- ------------  ---------------      ----- ------------  ---------------
   530     11.001830  18 H  s               557    -10.978268  21 H  s         
   512     -8.239783  16 H  s               539      8.239114  19 H  s         
    49     -8.092258   2 C  s                92      8.069478   3 C  s         
   314     -5.590772   8 C  px              357      5.575080   9 C  px        
   476     -5.543330  12 H  s               503      5.527027  15 H  s         

 Vector   60  Occ=0.000000D+00  E= 1.890449D-01
              MO Center= -1.6D+00, -3.3D-03,  1.8D-01, r^2= 1.3D+01
   Bfn.  Coefficient  Atom+Function         Bfn.  Coefficient  Atom+Function  
  ----- ------------  ---------------      ----- ------------  ---------------
     6      7.382978   1 C  s               221      3.634839   6 C  s         
   264     -3.180449   7 C  s               530     -2.997314  18 H  s         
   557     -2.987734  21 H  s               306      2.612431   8 C  s         
   349      2.612838   9 C  s                15     -2.500232   1 C  pz        
   116      2.438475   3 C  dxz              73      2.424360   2 C  dxz       

 Vector   61  Occ=0.000000D+00  E= 1.900840D-01
              MO Center= -1.6D-01, -4.7D-03,  8.9D-02, r^2= 1.7D+01
   Bfn.  Coefficient  Atom+Function         Bfn.  Coefficient  Atom+Function  
  ----- ------------  ---------------      ----- ------------  ---------------
     6     21.264484   1 C  s                28     -6.215911   1 C  dxx       
   264     -6.167448   7 C  s               476     -5.828939  12 H  s         
   503     -5.854957  15 H  s                49     -5.683791   2 C  s         
    92     -5.691887   3 C  s               286      3.688577   7 C  dxx       
   221      3.515693   6 C  s               436      3.272864  11 N  s         

 Vector   62  Occ=0.000000D+00  E= 1.920366D-01
              MO Center=  9.6D-01,  7.1D-03, -4.0D-01, r^2= 1.7D+01
   Bfn.  Coefficient  Atom+Function         Bfn.  Coefficient  Atom+Function  
  ----- ------------  ---------------      ----- ------------  ---------------
    32      6.407688   1 C  dyz             331      4.385586   8 C  dxz       
   374     -4.380125   9 C  dxz              73     -3.796063   2 C  dxz       
   116      3.781985   3 C  dxz             476     -3.518840  12 H  s         
   503      3.493325  15 H  s               144      2.841067   4 C  pz        
   187     -2.848154   5 C  pz              512      2.640544  16 H  s         

 Vector   63  Occ=0.000000D+00  E= 2.059981D-01
              MO Center=  9.7D-01, -6.1D-03,  9.7D-02, r^2= 2.0D+01
   Bfn.  Coefficient  Atom+Function         Bfn.  Coefficient  Atom+Function  
  ----- ------------  ---------------      ----- ------------  ---------------
   476     13.808396  12 H  s               503    -13.856078  15 H  s         
   178      8.101675   5 C  s               135     -7.963630   4 C  s         
   134      6.559530   4 C  s               177     -6.574080   5 C  s         
   201      6.534266   5 C  dxy             158      6.475467   4 C  dxy       
   557     -5.886330  21 H  s               530      5.783456  18 H  s         

 Vector   64  Occ=0.000000D+00  E= 2.062930D-01
              MO Center=  1.8D+00,  5.7D-03,  1.2D-01, r^2= 1.8D+01
   Bfn.  Coefficient  Atom+Function         Bfn.  Coefficient  Atom+Function  
  ----- ------------  ---------------      ----- ------------  ---------------
   393     11.725802  10 N  s               392     -9.437850  10 N  s         
   306     -8.088025   8 C  s               349     -8.125346   9 C  s         
   436     -7.561438  11 N  s               264      7.326592   7 C  s         
   539      6.044882  19 H  s               494     -5.968113  14 H  s         
   512      5.856081  16 H  s               485     -5.825468  13 H  s         

 Vector   65  Occ=0.000000D+00  E= 2.136176D-01
              MO Center= -5.6D-01, -3.8D-04,  1.0D-01, r^2= 2.1D+01
   Bfn.  Coefficient  Atom+Function         Bfn.  Coefficient  Atom+Function  
  ----- ------------  ---------------      ----- ------------  ---------------
   221     22.865856   6 C  s               264    -15.633753   7 C  s         
   393     12.073360  10 N  s               436     10.383895  11 N  s         
     6     -5.649752   1 C  s               485     -4.699500  13 H  s         
   494     -4.692073  14 H  s               135     -4.297551   4 C  s         
   178     -4.312369   5 C  s               530     -4.202284  18 H  s         

 Vector   66  Occ=0.000000D+00  E= 2.203619D-01
              MO Center=  5.0D-01,  2.4D-03, -8.2D-02, r^2= 2.3D+01
   Bfn.  Coefficient  Atom+Function         Bfn.  Coefficient  Atom+Function  
  ----- ------------  ---------------      ----- ------------  ---------------
   264     12.831034   7 C  s               393     10.586182  10 N  s         
   221     -9.168496   6 C  s               436     -6.628424  11 N  s         
   307     -6.040403   8 C  s               350     -6.025778   9 C  s         
   530     -5.859454  18 H  s               557     -5.865893  21 H  s         
     6      5.095913   1 C  s               306      4.059593   8 C  s         

 Vector   67  Occ=0.000000D+00  E= 2.209224D-01
              MO Center=  1.4D+00, -8.5D-04,  6.6D-02, r^2= 1.8D+01
   Bfn.  Coefficient  Atom+Function         Bfn.  Coefficient  Atom+Function  
  ----- ------------  ---------------      ----- ------------  ---------------
   476     -7.290541  12 H  s               503      7.310618  15 H  s         
   244      7.111157   6 C  dxy              29     -5.711895   1 C  dxy       
   142      5.400501   4 C  px              185     -5.393651   5 C  px        
   307      4.497803   8 C  s               350     -4.518735   9 C  s         
   485      4.236019  13 H  s               494     -4.229231  14 H  s         

 Vector   68  Occ=0.000000D+00  E= 2.310196D-01
              MO Center=  7.0D-01, -2.0D-03, -2.9D-01, r^2= 2.2D+01
   Bfn.  Coefficient  Atom+Function         Bfn.  Coefficient  Atom+Function  
  ----- ------------  ---------------      ----- ------------  ---------------
   393    -15.810858  10 N  s               264     14.838402   7 C  s         
   436    -11.020855  11 N  s                 6     10.526032   1 C  s         
   530     -8.916253  18 H  s               557     -8.931804  21 H  s         
   221     -7.623704   6 C  s               314      6.645445   8 C  px        
   357      6.649784   9 C  px              392      6.518574  10 N  s         

 Vector   69  Occ=0.000000D+00  E= 2.351710D-01
              MO Center= -2.5D+00, -5.4D-04, -1.6D-02, r^2= 1.2D+01
   Bfn.  Coefficient  Atom+Function         Bfn.  Coefficient  Atom+Function  
  ----- ------------  ---------------      ----- ------------  ---------------
     6      6.555820   1 C  s               245      6.279197   6 C  dxz       
    49     -4.847533   2 C  s                92     -4.854154   3 C  s         
   288      4.680522   7 C  dxz             273      3.463195   7 C  pz        
   393      3.180892  10 N  s               161     -2.216304   4 C  dyz       
   204      2.214349   5 C  dyz              28     -2.030488   1 C  dxx       

 Vector   70  Occ=0.000000D+00  E= 2.426331D-01
              MO Center=  2.0D+00, -3.9D-04, -2.3D-01, r^2= 1.7D+01
   Bfn.  Coefficient  Atom+Function         Bfn.  Coefficient  Atom+Function  
  ----- ------------  ---------------      ----- ------------  ---------------
   307      6.889231   8 C  s               350     -6.889752   9 C  s         
   530     -4.990792  18 H  s               557      5.000506  21 H  s         
   135      3.556904   4 C  s               178     -3.549479   5 C  s         
   314      3.381921   8 C  px              357     -3.383903   9 C  px        
   512      3.226388  16 H  s               539     -3.229821  19 H  s         

 Vector   71  Occ=0.000000D+00  E= 2.442696D-01
              MO Center=  1.8D+00,  2.8D-03, -1.1D-01, r^2= 1.8D+01
   Bfn.  Coefficient  Atom+Function         Bfn.  Coefficient  Atom+Function  
  ----- ------------  ---------------      ----- ------------  ---------------
   530      7.394702  18 H  s               557     -7.380686  21 H  s         
   244      6.615461   6 C  dxy             512     -5.931768  16 H  s         
   539      5.908825  19 H  s               331     -5.414452   8 C  dxz       
   374      5.403767   9 C  dxz             307     -4.497880   8 C  s         
   350      4.473049   9 C  s               314     -3.693524   8 C  px        

 Vector   72  Occ=0.000000D+00  E= 2.456863D-01
              MO Center=  6.0D-01, -1.6D-03, -3.7D-02, r^2= 1.7D+01
   Bfn.  Coefficient  Atom+Function         Bfn.  Coefficient  Atom+Function  
  ----- ------------  ---------------      ----- ------------  ---------------
   306      9.881853   8 C  s               349      9.894225   9 C  s         
   392      9.560414  10 N  s               243     -7.417362   6 C  dxx       
   521     -7.286669  17 H  s               548     -7.288993  20 H  s         
    49      5.876932   2 C  s               264     -5.894116   7 C  s         
    92      5.862008   3 C  s               286     -5.356701   7 C  dxx       

 Vector   73  Occ=0.000000D+00  E= 2.509260D-01
              MO Center= -3.1D-01, -1.7D-03, -1.1D-01, r^2= 1.7D+01
   Bfn.  Coefficient  Atom+Function         Bfn.  Coefficient  Atom+Function  
  ----- ------------  ---------------      ----- ------------  ---------------
     6     15.443841   1 C  s                49     -9.139475   2 C  s         
    92     -9.156961   3 C  s               485      8.845492  13 H  s         
   494      8.847819  14 H  s               135      6.990434   4 C  s         
   178      6.981815   5 C  s               221      6.393921   6 C  s         
   436      6.154568  11 N  s               264     -6.120414   7 C  s         

 Vector   74  Occ=0.000000D+00  E= 2.615788D-01
              MO Center=  9.7D-02, -1.5D-03, -1.3D-01, r^2= 1.6D+01
   Bfn.  Coefficient  Atom+Function         Bfn.  Coefficient  Atom+Function  
  ----- ------------  ---------------      ----- ------------  ---------------
     6     12.300326   1 C  s               393    -10.526167  10 N  s         
   530      8.752147  18 H  s               557      8.746884  21 H  s         
   221      8.649250   6 C  s               314     -5.587826   8 C  px        
   357     -5.585494   9 C  px               49     -5.394690   2 C  s         
    92     -5.411558   3 C  s               392     -4.494838  10 N  s         

 Vector   75  Occ=0.000000D+00  E= 2.652513D-01
              MO Center= -5.1D-01,  2.1D-03,  2.0D-01, r^2= 2.0D+01
   Bfn.  Coefficient  Atom+Function         Bfn.  Coefficient  Atom+Function  
  ----- ------------  ---------------      ----- ------------  ---------------
    49     17.274075   2 C  s                92    -17.235931   3 C  s         
   135     14.580176   4 C  s               178    -14.604916   5 C  s         
   244    -12.826662   6 C  dxy             476    -11.536900  12 H  s         
   503     11.533645  15 H  s               494     -9.288627  14 H  s         
   485      9.236875  13 H  s               229      8.447923   6 C  py        

 Vector   76  Occ=0.000000D+00  E= 2.681586D-01
              MO Center= -5.3D-01,  2.3D-03, -2.1D-02, r^2= 1.8D+01
   Bfn.  Coefficient  Atom+Function         Bfn.  Coefficient  Atom+Function  
  ----- ------------  ---------------      ----- ------------  ---------------
   485      9.788184  13 H  s               494     -9.777547  14 H  s         
   135      8.501703   4 C  s               178     -8.510244   5 C  s         
   476     -5.502179  12 H  s               503      5.518367  15 H  s         
   521      4.988752  17 H  s               548     -4.999758  20 H  s         
    72     -4.305214   2 C  dxy             115     -4.310538   3 C  dxy       

 Vector   77  Occ=0.000000D+00  E= 2.698444D-01
              MO Center=  9.4D-01, -1.7D-03,  2.6D-01, r^2= 1.8D+01
   Bfn.  Coefficient  Atom+Function         Bfn.  Coefficient  Atom+Function  
  ----- ------------  ---------------      ----- ------------  ---------------
    49     10.212044   2 C  s                92     10.257338   3 C  s         
   135     -7.545790   4 C  s               178     -7.496894   5 C  s         
   221      6.458575   6 C  s               314     -6.011220   8 C  px        
   357     -6.014308   9 C  px              476      6.003905  12 H  s         
   503      5.964806  15 H  s               530      5.765522  18 H  s         

 Vector   78  Occ=0.000000D+00  E= 2.831175D-01
              MO Center= -5.2D-01, -1.0D-04, -6.4D-02, r^2= 1.8D+01
   Bfn.  Coefficient  Atom+Function         Bfn.  Coefficient  Atom+Function  
  ----- ------------  ---------------      ----- ------------  ---------------
   485      9.000555  13 H  s               494     -9.021884  14 H  s         
   530      5.559145  18 H  s               557     -5.522148  21 H  s         
    72     -4.818894   2 C  dxy             115     -4.816966   3 C  dxy       
   244      4.365768   6 C  dxy             229     -4.289763   6 C  py        
   476     -4.073446  12 H  s               503      4.064932  15 H  s         

 Vector   79  Occ=0.000000D+00  E= 2.839863D-01
              MO Center=  1.2D+00, -4.1D-04, -3.0D-01, r^2= 1.6D+01
   Bfn.  Coefficient  Atom+Function         Bfn.  Coefficient  Atom+Function  
  ----- ------------  ---------------      ----- ------------  ---------------
   521     10.574876  17 H  s               548     10.555161  20 H  s         
   392     -9.698271  10 N  s               306     -9.589221   8 C  s         
   349     -9.598723   9 C  s               243      8.371779   6 C  dxx       
   286      8.106127   7 C  dxx             264     -7.609399   7 C  s         
   435     -7.148951  11 N  s               316      6.393282   8 C  pz        

 Vector   80  Occ=0.000000D+00  E= 2.866066D-01
              MO Center=  1.7D+00, -5.4D-04,  6.5D-02, r^2= 1.5D+01
   Bfn.  Coefficient  Atom+Function         Bfn.  Coefficient  Atom+Function  
  ----- ------------  ---------------      ----- ------------  ---------------
   221     14.649153   6 C  s               530     -9.114261  18 H  s         
   557     -9.095832  21 H  s               264     -7.421247   7 C  s         
   392      7.044291  10 N  s               485     -6.755619  13 H  s         
   494     -6.752501  14 H  s               306      6.594832   8 C  s         
   349      6.595558   9 C  s               178     -5.892622   5 C  s         

 Vector   81  Occ=0.000000D+00  E= 2.881682D-01
              MO Center= -1.6D+00,  9.1D-04,  9.9D-03, r^2= 1.4D+01
   Bfn.  Coefficient  Atom+Function         Bfn.  Coefficient  Atom+Function  
  ----- ------------  ---------------      ----- ------------  ---------------
   247      6.688006   6 C  dyz             244      3.882286   6 C  dxy       
   159     -3.562474   4 C  dxz             202      3.560345   5 C  dxz       
   135     -3.200329   4 C  s               178      3.133276   5 C  s         
   161      2.605625   4 C  dyz             204      2.596723   5 C  dyz       
   229     -2.565563   6 C  py              272      2.398709   7 C  py        

 Vector   82  Occ=0.000000D+00  E= 2.925476D-01
              MO Center=  9.8D-01,  5.4D-04,  2.7D-01, r^2= 1.6D+01
   Bfn.  Coefficient  Atom+Function         Bfn.  Coefficient  Atom+Function  
  ----- ------------  ---------------      ----- ------------  ---------------
   512     13.420330  16 H  s               539     13.433234  19 H  s         
   476      8.269932  12 H  s               503      8.267466  15 H  s         
   306     -7.346129   8 C  s               349     -7.349663   9 C  s         
   392     -7.290420  10 N  s               530     -7.038217  18 H  s         
   557     -7.038740  21 H  s               315     -6.962266   8 C  py        

 Vector   83  Occ=0.000000D+00  E= 3.007276D-01
              MO Center=  2.9D-01,  1.4D-04, -2.3D-02, r^2= 1.4D+01
   Bfn.  Coefficient  Atom+Function         Bfn.  Coefficient  Atom+Function  
  ----- ------------  ---------------      ----- ------------  ---------------
   521     -8.114329  17 H  s               548     -8.119649  20 H  s         
     6      7.593846   1 C  s               286      7.430920   7 C  dxx       
   393     -6.999412  10 N  s               530      6.488370  18 H  s         
   557      6.496375  21 H  s               243      6.401387   6 C  dxx       
   476     -6.174685  12 H  s               503     -6.174959  15 H  s         

 Vector   84  Occ=0.000000D+00  E= 3.045820D-01
              MO Center=  2.3D+00, -3.5D-04, -6.6D-02, r^2= 1.4D+01
   Bfn.  Coefficient  Atom+Function         Bfn.  Coefficient  Atom+Function  
  ----- ------------  ---------------      ----- ------------  ---------------
    32      5.776109   1 C  dyz             331      5.256402   8 C  dxz       
   374     -5.253978   9 C  dxz              49     -4.571704   2 C  s         
    92      4.577487   3 C  s               135     -4.116405   4 C  s         
   178      4.107951   5 C  s               316     -3.912890   8 C  pz        
   359      3.923294   9 C  pz               75      3.790335   2 C  dyz       

 Vector   85  Occ=0.000000D+00  E= 3.134611D-01
              MO Center=  2.1D+00, -5.2D-04, -4.2D-01, r^2= 1.4D+01
   Bfn.  Coefficient  Atom+Function         Bfn.  Coefficient  Atom+Function  
  ----- ------------  ---------------      ----- ------------  ---------------
   521     14.107884  17 H  s               548    -14.123424  20 H  s         
   530    -10.387745  18 H  s               557     10.399645  21 H  s         
    49      7.738279   2 C  s                92     -7.752064   3 C  s         
   315     -7.695152   8 C  py              358     -7.699403   9 C  py        
   316      6.113917   8 C  pz              359     -6.121293   9 C  pz        

 Vector   86  Occ=0.000000D+00  E= 3.153296D-01
              MO Center= -5.5D-01,  1.2D-04, -7.8D-02, r^2= 1.7D+01
   Bfn.  Coefficient  Atom+Function         Bfn.  Coefficient  Atom+Function  
  ----- ------------  ---------------      ----- ------------  ---------------
   221    -22.494457   6 C  s                 6     22.332652   1 C  s         
    49    -13.548324   2 C  s                92    -13.554927   3 C  s         
   135     13.420403   4 C  s               178     13.414013   5 C  s         
   476    -12.604952  12 H  s               503    -12.619523  15 H  s         
   286      6.901000   7 C  dxx             435     -5.895839  11 N  s         

 Vector   87  Occ=0.000000D+00  E= 3.216680D-01
              MO Center=  9.7D-01, -1.8D-04, -3.0D-01, r^2= 1.7D+01
   Bfn.  Coefficient  Atom+Function         Bfn.  Coefficient  Atom+Function  
  ----- ------------  ---------------      ----- ------------  ---------------
   221     16.066754   6 C  s               393     10.858036  10 N  s         
   264     -9.449557   7 C  s               485     -8.929618  13 H  s         
   494     -8.948575  14 H  s               530     -8.971038  18 H  s         
   557     -8.959788  21 H  s               521      6.661651  17 H  s         
   548      6.602734  20 H  s               306      6.334081   8 C  s         

 Vector   88  Occ=0.000000D+00  E= 3.223756D-01
              MO Center=  1.3D+00, -6.6D-03,  8.0D-02, r^2= 1.6D+01
[...]
     Magnetic Dipole                               0.0000001548
     Total Oscillator Strength                     0.1007739667

     Occ.   34  a   ---  Virt.   41  a        0.09711
     Occ.   37  a   ---  Virt.   41  a       -0.34704
     Occ.   37  a   ---  Virt.   43  a       -0.09194
     Occ.   37  a   ---  Virt.   48  a        0.07562
     Occ.   38  a   ---  Virt.   40  a       -0.54486
     Occ.   38  a   ---  Virt.   42  a        0.15406
     Occ.   39  a   ---  Virt.   41  a       -0.27021
     Occ.   39  a   ---  Virt.   43  a       -0.62757
     Occ.   39  a   ---  Virt.   45  a        0.05357
     Occ.   39  a   ---  Virt.   48  a       -0.16966
     Occ.   39  a   ---  Virt.   67  a        0.05964
  ----------------------------------------------------------------------------
  Root   6 singlet a              0.233681821 a.u.                6.3588 eV 
  ----------------------------------------------------------------------------
     Transition Moments    X  0.01367   Y -0.00238   Z  0.02348
     Transition Moments   XX -0.83511  XY  0.00084  XZ  0.83495
     Transition Moments   YY  0.35386  YZ  0.00755  ZZ -0.63106
     Dipole Oscillator Strength                    0.0001159075
     Electric Quadrupole                           0.0000000748
     Magnetic Dipole                               0.0000000308
     Total Oscillator Strength                     0.0001160132

     Occ.   34  a   ---  Virt.   42  a       -0.05628
     Occ.   37  a   ---  Virt.   40  a        0.09687
     Occ.   37  a   ---  Virt.   42  a        0.18177
     Occ.   37  a   ---  Virt.   46  a        0.13597
     Occ.   38  a   ---  Virt.   41  a       -0.05353
     Occ.   39  a   ---  Virt.   42  a        0.06742
     Occ.   39  a   ---  Virt.   44  a        0.92501
     Occ.   39  a   ---  Virt.   46  a        0.10405
     Occ.   39  a   ---  Virt.   49  a        0.05564
     Occ.   39  a   ---  Virt.   52  a       -0.13694
     Occ.   39  a   ---  Virt.   54  a       -0.05026
     Occ.   39  a   ---  Virt.   61  a       -0.07986
     Occ.   39  a   ---  Virt.   65  a       -0.06616
     Occ.   39  a   ---  Virt.   66  a        0.05960
  ----------------------------------------------------------------------------
  Root   7 singlet a              0.238158657 a.u.                6.4806 eV 
  ----------------------------------------------------------------------------
     Transition Moments    X -0.00016   Y  0.05235   Z -0.00009
     Transition Moments   XX -0.00048  XY  0.05450  XZ  0.00154
     Transition Moments   YY  0.00003  YZ -0.40432  ZZ -0.00204
     Dipole Oscillator Strength                    0.0004351068
     Electric Quadrupole                           0.0000000120
     Magnetic Dipole                               0.0000002955
     Total Oscillator Strength                     0.0004354143

     Occ.   34  a   ---  Virt.   48  a       -0.16541
     Occ.   36  a   ---  Virt.   40  a        0.31789
     Occ.   36  a   ---  Virt.   42  a       -0.06082
     Occ.   36  a   ---  Virt.   54  a       -0.07875
     Occ.   36  a   ---  Virt.   56  a        0.06467
     Occ.   37  a   ---  Virt.   45  a       -0.08748
     Occ.   37  a   ---  Virt.   48  a       -0.43550
     Occ.   37  a   ---  Virt.   51  a        0.11013
     Occ.   39  a   ---  Virt.   43  a       -0.20353
     Occ.   39  a   ---  Virt.   45  a        0.19176
     Occ.   39  a   ---  Virt.   48  a        0.71765
     Occ.   39  a   ---  Virt.   51  a       -0.18756
  ----------------------------------------------------------------------------
  Root   8 singlet a              0.241808697 a.u.                6.5800 eV 
  ----------------------------------------------------------------------------
     Transition Moments    X -0.09090   Y -0.00001   Z  0.00874
     Transition Moments   XX  2.31596  XY  0.00032  XZ  0.37611
     Transition Moments   YY -0.78340  YZ  0.00014  ZZ  0.31215
     Dipole Oscillator Strength                    0.0013443338
     Electric Quadrupole                           0.0000001966
     Magnetic Dipole                               0.0000000780
     Total Oscillator Strength                     0.0013446084

     Occ.   36  a   ---  Virt.   48  a        0.06807
     Occ.   37  a   ---  Virt.   40  a       -0.15640
     Occ.   37  a   ---  Virt.   42  a        0.08094
     Occ.   37  a   ---  Virt.   47  a       -0.08747
     Occ.   37  a   ---  Virt.   52  a        0.07850
     Occ.   38  a   ---  Virt.   41  a        0.08497
     Occ.   39  a   ---  Virt.   40  a        0.06574
     Occ.   39  a   ---  Virt.   42  a        0.24222
     Occ.   39  a   ---  Virt.   44  a        0.06584
     Occ.   39  a   ---  Virt.   46  a       -0.38872
     Occ.   39  a   ---  Virt.   47  a       -0.81601
     Occ.   39  a   ---  Virt.   49  a       -0.05686
     Occ.   39  a   ---  Virt.   58  a        0.05967
     Occ.   39  a   ---  Virt.   61  a        0.05066
     Occ.   39  a   ---  Virt.   68  a        0.06338
     Occ.   39  a   ---  Virt.   72  a        0.07081
     Occ.   39  a   ---  Virt.   73  a        0.08965

              Target root =      1
          Target symmetry = none
      Ground state energy =   -458.191710661113
        Excitation energy =      0.171655549264
     Excited state energy =   -458.020055111850

  stored tddft:energy   -458.02005511184996     

    8 smallest eigenvalue differences (eV) 
--------------------------------------------------------
  No. Spin  Occ  Vir  Irrep   E(Occ)    E(Vir)   E(Diff)
--------------------------------------------------------
    1    1   39   40 a        -0.295     0.020     8.568
    2    1   39   41 a        -0.295     0.036     9.007
    3    1   39   42 a        -0.295     0.039     9.067
    4    1   39   43 a        -0.295     0.059     9.610
    5    1   39   44 a        -0.295     0.063     9.725
    6    1   39   45 a        -0.295     0.085    10.318
    7    1   38   40 a        -0.360     0.020    10.346
    8    1   39   46 a        -0.295     0.090    10.476
--------------------------------------------------------

  Entering Davidson iterations
  Restricted triplet excited states

  Iter   NTrls   NConv    DeltaV     DeltaE      Time   
  ----  ------  ------  ---------  ---------  --------- 
    1      8       0     0.60E-01   0.10+100      527.8
    2     16       0     0.21E-01   0.17E-01      533.1
    3     24       0     0.14E+00   0.11E-01      531.6
    4     32       0     0.66E-01   0.29E-01      534.0
    5     40       0     0.50E-01   0.18E-01      534.4
    6     48       1     0.28E-01   0.61E-02      537.4
    7     55       1     0.22E-01   0.20E-02      515.6
    8     62       3     0.17E-01   0.12E-02      510.7
    9     67       3     0.91E-02   0.47E-03      463.2
   10     72       4     0.32E-02   0.93E-04      461.9
   11     76       4     0.12E-02   0.10E-04      435.4
   12     80       6     0.45E-03   0.14E-05      434.1
   13     82       6     0.16E-03   0.16E-06      384.0
   14     84       8     0.77E-04   0.15E-07      383.7
  ----  ------  ------  ---------  ---------  --------- 
  Convergence criterion met

  Ground state a        -458.191710661113 a.u.

  ----------------------------------------------------------------------------
  Root   1 triplet a              0.123893250 a.u.                3.3713 eV 
  ----------------------------------------------------------------------------
     Transition Moments                    Spin forbidden
     Oscillator Strength                   Spin forbidden

     Occ.   34  a   ---  Virt.   40  a        0.08021
     Occ.   34  a   ---  Virt.   54  a        0.05960
     Occ.   37  a   ---  Virt.   40  a       -0.18598
     Occ.   37  a   ---  Virt.   54  a        0.06015
     Occ.   37  a   ---  Virt.   56  a       -0.05234
     Occ.   38  a   ---  Virt.   41  a        0.16820
     Occ.   39  a   ---  Virt.   40  a        0.92768
     Occ.   39  a   ---  Virt.   42  a       -0.14240
     Occ.   39  a   ---  Virt.   54  a        0.08270
     Occ.   39  a   ---  Virt.   56  a       -0.06270
  ----------------------------------------------------------------------------
  Root   2 triplet a              0.142258977 a.u.                3.8711 eV 
  ----------------------------------------------------------------------------
     Transition Moments                    Spin forbidden
     Oscillator Strength                   Spin forbidden

     Occ.   34  a   ---  Virt.   41  a       -0.16950
     Occ.   37  a   ---  Virt.   41  a        0.10370
     Occ.   39  a   ---  Virt.   41  a       -0.97222
  ----------------------------------------------------------------------------
  Root   3 triplet a              0.165625798 a.u.                4.5069 eV 
  ----------------------------------------------------------------------------
     Transition Moments                    Spin forbidden
     Oscillator Strength                   Spin forbidden

     Occ.   30  a   ---  Virt.   40  a       -0.05417
     Occ.   37  a   ---  Virt.   40  a        0.08016
     Occ.   38  a   ---  Virt.   41  a       -0.95681
     Occ.   38  a   ---  Virt.   53  a        0.05400
     Occ.   38  a   ---  Virt.   70  a        0.05065
     Occ.   38  a   ---  Virt.   71  a        0.06136
     Occ.   39  a   ---  Virt.   40  a        0.20320
  ----------------------------------------------------------------------------
  Root   4 triplet a              0.180617613 a.u.                4.9149 eV 
  ----------------------------------------------------------------------------
     Transition Moments                    Spin forbidden
     Oscillator Strength                   Spin forbidden

     Occ.   30  a   ---  Virt.   41  a       -0.07953
     Occ.   37  a   ---  Virt.   41  a        0.10849
     Occ.   38  a   ---  Virt.   40  a       -0.96253
     Occ.   38  a   ---  Virt.   42  a        0.16516
     Occ.   38  a   ---  Virt.   54  a       -0.06319
     Occ.   38  a   ---  Virt.   69  a       -0.05615
  ----------------------------------------------------------------------------
  Root   5 triplet a              0.198028356 a.u.                5.3886 eV 
  ----------------------------------------------------------------------------
     Transition Moments                    Spin forbidden
     Oscillator Strength                   Spin forbidden

     Occ.   34  a   ---  Virt.   40  a        0.14318
     Occ.   34  a   ---  Virt.   54  a       -0.08829
     Occ.   34  a   ---  Virt.   56  a        0.07626
     Occ.   36  a   ---  Virt.   48  a        0.11090
     Occ.   37  a   ---  Virt.   40  a        0.57956
     Occ.   37  a   ---  Virt.   54  a       -0.08993
     Occ.   37  a   ---  Virt.   56  a        0.05785
     Occ.   38  a   ---  Virt.   41  a        0.05554
     Occ.   39  a   ---  Virt.   40  a        0.17313
     Occ.   39  a   ---  Virt.   42  a        0.62141
     Occ.   39  a   ---  Virt.   47  a        0.23776
     Occ.   39  a   ---  Virt.   49  a        0.08403
     Occ.   39  a   ---  Virt.   52  a       -0.12386
     Occ.   39  a   ---  Virt.   54  a        0.16573
     Occ.   39  a   ---  Virt.   55  a       -0.05233
     Occ.   39  a   ---  Virt.   56  a       -0.15728
     Occ.   39  a   ---  Virt.   58  a        0.06349
     Occ.   39  a   ---  Virt.   60  a        0.07547
  ----------------------------------------------------------------------------
  Root   6 triplet a              0.203430845 a.u.                5.5356 eV 
  ----------------------------------------------------------------------------
     Transition Moments                    Spin forbidden
     Oscillator Strength                   Spin forbidden

     Occ.   34  a   ---  Virt.   40  a        0.18502
     Occ.   34  a   ---  Virt.   54  a       -0.09946
     Occ.   34  a   ---  Virt.   56  a        0.08160
     Occ.   36  a   ---  Virt.   48  a        0.13529
     Occ.   37  a   ---  Virt.   40  a        0.51119
     Occ.   37  a   ---  Virt.   42  a       -0.21272
     Occ.   37  a   ---  Virt.   44  a       -0.07378
     Occ.   37  a   ---  Virt.   47  a       -0.05838
     Occ.   37  a   ---  Virt.   52  a        0.06293
     Occ.   37  a   ---  Virt.   54  a       -0.05548
     Occ.   37  a   ---  Virt.   56  a        0.06272
     Occ.   38  a   ---  Virt.   41  a        0.06063
     Occ.   39  a   ---  Virt.   42  a       -0.64997
     Occ.   39  a   ---  Virt.   44  a        0.10085
     Occ.   39  a   ---  Virt.   47  a       -0.15068
     Occ.   39  a   ---  Virt.   50  a        0.07157
     Occ.   39  a   ---  Virt.   54  a        0.25635
     Occ.   39  a   ---  Virt.   56  a       -0.15824
     Occ.   39  a   ---  Virt.   61  a       -0.06264
  ----------------------------------------------------------------------------
  Root   7 triplet a              0.218499090 a.u.                5.9457 eV 
  ----------------------------------------------------------------------------
     Transition Moments                    Spin forbidden
     Oscillator Strength                   Spin forbidden

     Occ.   33  a   ---  Virt.   40  a        0.07673
     Occ.   33  a   ---  Virt.   54  a       -0.06589
     Occ.   33  a   ---  Virt.   56  a        0.05410
     Occ.   34  a   ---  Virt.   48  a       -0.24781
     Occ.   34  a   ---  Virt.   51  a        0.07715
     Occ.   36  a   ---  Virt.   40  a       -0.50609
     Occ.   36  a   ---  Virt.   42  a        0.10133
     Occ.   36  a   ---  Virt.   52  a       -0.06804
     Occ.   36  a   ---  Virt.   54  a        0.17104
     Occ.   36  a   ---  Virt.   56  a       -0.13995
     Occ.   37  a   ---  Virt.   45  a       -0.06302
     Occ.   37  a   ---  Virt.   48  a       -0.43876
     Occ.   37  a   ---  Virt.   51  a        0.12559
     Occ.   39  a   ---  Virt.   43  a        0.10364
     Occ.   39  a   ---  Virt.   45  a        0.09592
     Occ.   39  a   ---  Virt.   48  a        0.56661
     Occ.   39  a   ---  Virt.   51  a       -0.12344
  ----------------------------------------------------------------------------
  Root   8 triplet a              0.229418687 a.u.                6.2428 eV 
  ----------------------------------------------------------------------------
     Transition Moments                    Spin forbidden
     Oscillator Strength                   Spin forbidden

     Occ.   28  a   ---  Virt.   42  a       -0.05051
     Occ.   36  a   ---  Virt.   40  a        0.12706
     Occ.   37  a   ---  Virt.   41  a       -0.07750
     Occ.   37  a   ---  Virt.   43  a        0.14754
     Occ.   37  a   ---  Virt.   45  a        0.06812
     Occ.   38  a   ---  Virt.   42  a       -0.12000
     Occ.   38  a   ---  Virt.   44  a        0.07015
     Occ.   38  a   ---  Virt.   46  a        0.05103
     Occ.   39  a   ---  Virt.   43  a        0.92779
     Occ.   39  a   ---  Virt.   45  a       -0.09464
     Occ.   39  a   ---  Virt.   51  a        0.11420
     Occ.   39  a   ---  Virt.   67  a       -0.09642
     Occ.   39  a   ---  Virt.   70  a       -0.05747

              Target root =      1
          Target symmetry = none
      Ground state energy =   -458.191710661113
        Excitation energy =      0.123893249958
     Excited state energy =   -458.067817411155

  stored tddft:energy   -458.06781741115549     

 Task  times  cpu:    13579.8s     wall:    16189.2s


                                NWChem Input Module
                                -------------------


 Summary of allocated global arrays
-----------------------------------
  No active global arrays


MA_summarize_allocated_blocks: starting scan ...
heap block 'gridpts', handle 92, address 0x12b26c70:
	type of elements:		double precision
	number of elements:		5242755220
	address of client space:	0x12b26d00
	index for client space:		11053303
	total number of bytes:		41942041912
MA_summarize_allocated_blocks: scan completed: 1 heap block, 0 stack blocks
MA usage statistics:

	allocation statistics:
					      heap	     stack
					      ----	     -----
	current number of blocks	         1	         0
	maximum number of blocks	        18	        53
	current total bytes		41942041912	         0
	maximum total bytes		41944431440	  52358040
	maximum total K-bytes		  41944432	     52359
	maximum total M-bytes		     41945	        53


                                     CITATION
                                     --------
                Please cite the following reference when publishing
                           results obtained with NWChem:

          E. Apra, E. J. Bylaska, W. A. de Jong, N. Govind, K. Kowalski,
       T. P. Straatsma, M. Valiev, H. J. J. van Dam, Y. Alexeev, J. Anchell,
       V. Anisimov, F. W. Aquino, R. Atta-Fynn, J. Autschbach, N. P. Bauman,
     J. C. Becca, D. E. Bernholdt, K. Bhaskaran-Nair, S. Bogatko, P. Borowski,
         J. Boschen, J. Brabec, A. Bruner, E. Cauet, Y. Chen, G. N. Chuev,
      C. J. Cramer, J. Daily, M. J. O. Deegan, T. H. Dunning Jr., M. Dupuis,
   K. G. Dyall, G. I. Fann, S. A. Fischer, A. Fonari, H. Fruchtl, L. Gagliardi,
      J. Garza, N. Gawande, S. Ghosh, K. Glaesemann, A. W. Gotz, J. Hammond,
       V. Helms, E. D. Hermes, K. Hirao, S. Hirata, M. Jacquelin, L. Jensen,
   B. G. Johnson, H. Jonsson, R. A. Kendall, M. Klemm, R. Kobayashi, V. Konkov,
      S. Krishnamoorthy, M. Krishnan, Z. Lin, R. D. Lins, R. J. Littlefield,
      A. J. Logsdail, K. Lopata, W. Ma, A. V. Marenich, J. Martin del Campo,
   D. Mejia-Rodriguez, J. E. Moore, J. M. Mullin, T. Nakajima, D. R. Nascimento,
    J. A. Nichols, P. J. Nichols, J. Nieplocha, A. Otero-de-la-Roza, B. Palmer,
    A. Panyala, T. Pirojsirikul, B. Peng, R. Peverati, J. Pittner, L. Pollack,
   R. M. Richard, P. Sadayappan, G. C. Schatz, W. A. Shelton, D. W. Silverstein,
   D. M. A. Smith, T. A. Soares, D. Song, M. Swart, H. L. Taylor, G. S. Thomas,
            V. Tipparaju, D. G. Truhlar, K. Tsemekhman, T. Van Voorhis,
      A. Vazquez-Mayagoitia, P. Verma, O. Villa, A. Vishnu, K. D. Vogiatzis,
        D. Wang, J. H. Weare, M. J. Williamson, T. L. Windus, K. Wolinski,
        A. T. Wong, Q. Wu, C. Yang, Q. Yu, M. Zacharias, Z. Zhang, Y. Zhao,
                                and R. J. Harrison
                        "NWChem: Past, present, and future
                         J. Chem. Phys. 152, 184102 (2020)
                               doi:10.1063/5.0004997

                                      AUTHORS
                                      -------
  E. Apra, E. J. Bylaska, N. Govind, K. Kowalski, M. Valiev, D. Mejia-Rodriguez,
       A. Kunitsa, N. P. Bauman, A. Panyala, W. A. de Jong, T. P. Straatsma,
   H. J. J. van Dam, D. Wang, T. L. Windus, J. Hammond, J. Autschbach, A. Woods,
    K. Bhaskaran-Nair, J. Brabec, K. Lopata, S. A. Fischer, S. Krishnamoorthy,
     M. Jacquelin, W. Ma, M. Klemm, O. Villa, Y. Chen, V. Anisimov, F. Aquino,
     S. Hirata, M. T. Hackler, E. Hermes, L. Jensen, J. E. Moore, J. C. Becca,
      V. Konjkov, T. Risthaus, M. Malagoli, A. Marenich, A. Otero-de-la-Roza,
        J. Mullin, P. Nichols, R. Peverati, J. Pittner, Y. Zhao, P.-D. Fan,
        A. Fonari, M. J. Williamson, R. J. Harrison, J. R. Rehr, M. Dupuis,
     D. Silverstein, D. M. A. Smith, J. Nieplocha, V. Tipparaju, M. Krishnan,
     B. E. Van Kuiken, A. Vazquez-Mayagoitia, M. Swart, Q. Wu, T. Van Voorhis,
     A. A. Auer, M. Nooijen, L. D. Crosby, E. Brown, G. Cisneros, G. I. Fann,
   H. Fruchtl, J. Garza, K. Hirao, R. A. Kendall, J. A. Nichols, K. Tsemekhman,
    K. Wolinski, J. Anchell, D. E. Bernholdt, P. Borowski, T. Clark, D. Clerc,
   H. Dachsel, M. J. O. Deegan, K. Dyall, D. Elwood, E. Glendening, M. Gutowski,
   A. C. Hess, J. Jaffe, B. G. Johnson, J. Ju, R. Kobayashi, R. Kutteh, Z. Lin,
   R. Littlefield, X. Long, B. Meng, T. Nakajima, S. Niu, L. Pollack, M. Rosing,
   K. Glaesemann, G. Sandrone, M. Stave, H. Taylor, G. Thomas, J. H. van Lenthe,
                               A. T. Wong, Z. Zhang.

 Total times  cpu:    13579.8s     wall:    16189.7s
