 argument  1 = /home/aditisingh4812/nw_chem/nwchem-run/nwchem-run/tddft/closed/lcwpbe/geom-MOL/nitrodimethylaniline.nw
                                         
                                         


             Northwest Computational Chemistry Package (NWChem) 7.2.3
             --------------------------------------------------------


                    Environmental Molecular Sciences Laboratory
                       Pacific Northwest National Laboratory
                                Richland, WA 99352

                              Copyright (c) 1994-2022
                       Pacific Northwest National Laboratory
                            Battelle Memorial Institute

             NWChem is an open-source computational chemistry package
                        distributed under the terms of the
                      Educational Community License (ECL) 2.0
             A copy of the license is included with this distribution
                              in the LICENSE.TXT file

                                  ACKNOWLEDGMENT
                                  --------------

            This software and its documentation were developed at the
            EMSL at Pacific Northwest National Laboratory, a multiprogram
            national laboratory, operated for the U.S. Department of Energy
            by Battelle under Contract Number DE-AC05-76RL01830. Support
            for this work was provided by the Department of Energy Office
            of Biological and Environmental Research, Office of Basic
            Energy Sciences, and the Office of Advanced Scientific Computing.


           Job information
           ---------------

    hostname        = p20
    program         = /home/aditisingh4812/nw_chem/nwchem-7.2.3-release.revision-d690e065-srconly.2024-08-27/nwchem-7.2.3/bin/LINUX64/nwchem
    date            = Tue Apr  8 21:15:21 2025

    compiled        = Mon_Apr_07_18:51:54_2025
    source          = /home/aditisingh4812/nw_chem/nwchem-7.2.3-release.revision-d690e065-srconly.2024-08-27/nwchem-7.2.3
    nwchem branch   = 7.2.3
    nwchem revision = d690e065
    ga revision     = 5.8.0
    use scalapack   = F
    input           = /home/aditisingh4812/nw_chem/nwchem-run/nwchem-run/tddft/closed/lcwpbe/geom-MOL/nitrodimethylaniline.nw
    prefix          = nitrodimethylaniline.
    data base       = ./nitrodimethylaniline.db
    status          = startup
    nproc           =       48
    time left       =     -1s



           Memory information
           ------------------

    heap     = ********** doubles = 100000.0 Mbytes
    stack    = ********** doubles = 100000.0 Mbytes
    global   = ********** doubles = 100000.0 Mbytes (distinct from heap & stack)
    total    = ********** doubles = 300000.0 Mbytes
    verify   = yes
    hardfail = no 


           Directory information
           ---------------------

  0 permanent = .
  0 scratch   = .




                                NWChem Input Module
                                -------------------



 Scaling coordinates for geometry "geometry" by  1.889725989
 (inverse scale =  0.529177249)



                             Geometry "geometry" -> ""
                             -------------------------

 Output coordinates in angstroms (scale by  1.889725989 to convert to a.u.)

  No.       Tag          Charge          X              Y              Z
 ---- ---------------- ---------- -------------- -------------- --------------
    1 C                    6.0000     0.00000000     0.00000000     1.30797384
    2 C                    6.0000     1.20804200     0.00000000     0.57986084
    3 C                    6.0000    -1.20804200     0.00000000     0.57986084
    4 C                    6.0000     0.00000000     0.00000000    -1.48661116
    5 C                    6.0000     1.20557900     0.00000000    -0.80181516
    6 C                    6.0000    -1.20557900     0.00000000    -0.80181516
    7 C                    6.0000     1.25152600     0.00000000     3.39320384
    8 C                    6.0000    -1.25152600     0.00000000     3.39320384
    9 N                    7.0000     0.00000000     0.00000000     2.67018884
   10 N                    7.0000     0.00000000     0.00000000    -2.93997316
   11 O                    8.0000     1.08458900     0.00000000    -3.50888616
   12 O                    8.0000    -1.08458900     0.00000000    -3.50888616
   13 H                    1.0000     2.15207500     0.00000000     1.09354284
   14 H                    1.0000    -2.15207500     0.00000000     1.09354284
   15 H                    1.0000     2.12679900     0.00000000    -1.35614216
   16 H                    1.0000    -2.12679900     0.00000000    -1.35614216
   17 H                    1.0000     1.04101800     0.00000000     4.45721084
   18 H                    1.0000    -1.04101800     0.00000000     4.45721084
   19 H                    1.0000     1.84946500     0.88435100     3.16456884
   20 H                    1.0000     1.84946500    -0.88435100     3.16456884
   21 H                    1.0000    -1.84946500    -0.88435100     3.16456884
   22 H                    1.0000    -1.84946500     0.88435100     3.16456884

      Atomic Mass 
      ----------- 

      C                 12.000000
      N                 14.003070
      O                 15.994910
      H                  1.007825


 Effective nuclear repulsion energy (a.u.)     682.4256967428

            Nuclear Dipole moment (a.u.) 
            ----------------------------
        X                 Y               Z
 ---------------- ---------------- ----------------
     0.0000000000     0.0000000000    -0.0000000000


            XYZ format geometry
            -------------------
    22
 geometry
 C                     0.00000000     0.00000000     1.30797384
 C                     1.20804200     0.00000000     0.57986084
 C                    -1.20804200     0.00000000     0.57986084
 C                     0.00000000     0.00000000    -1.48661116
 C                     1.20557900     0.00000000    -0.80181516
 C                    -1.20557900     0.00000000    -0.80181516
 C                     1.25152600     0.00000000     3.39320384
 C                    -1.25152600     0.00000000     3.39320384
 N                     0.00000000     0.00000000     2.67018884
 N                     0.00000000     0.00000000    -2.93997316
 O                     1.08458900     0.00000000    -3.50888616
 O                    -1.08458900     0.00000000    -3.50888616
 H                     2.15207500     0.00000000     1.09354284
 H                    -2.15207500     0.00000000     1.09354284
 H                     2.12679900     0.00000000    -1.35614216
 H                    -2.12679900     0.00000000    -1.35614216
 H                     1.04101800     0.00000000     4.45721084
 H                    -1.04101800     0.00000000     4.45721084
 H                     1.84946500     0.88435100     3.16456884
 H                     1.84946500    -0.88435100     3.16456884
 H                    -1.84946500    -0.88435100     3.16456884
 H                    -1.84946500     0.88435100     3.16456884

 ==============================================================================
                                internuclear distances
 ------------------------------------------------------------------------------
       center one      |      center two      | atomic units |  angstroms
 ------------------------------------------------------------------------------
    2 C                |   1 C                |     2.66546  |     1.41050
    3 C                |   1 C                |     2.66546  |     1.41050
    5 C                |   2 C                |     2.61099  |     1.38168
    5 C                |   4 C                |     2.62009  |     1.38649
    6 C                |   3 C                |     2.61099  |     1.38168
    6 C                |   4 C                |     2.62009  |     1.38649
    9 N                |   1 C                |     2.57421  |     1.36222
    9 N                |   7 C                |     2.73134  |     1.44536
    9 N                |   8 C                |     2.73134  |     1.44536
   10 N                |   4 C                |     2.74646  |     1.45336
   11 O                |  10 N                |     2.31443  |     1.22474
   12 O                |  10 N                |     2.31443  |     1.22474
   13 H                |   2 C                |     2.03097  |     1.07474
   14 H                |   3 C                |     2.03097  |     1.07474
   15 H                |   5 C                |     2.03172  |     1.07514
   16 H                |   6 C                |     2.03172  |     1.07514
   17 H                |   7 C                |     2.04966  |     1.08463
   18 H                |   8 C                |     2.04966  |     1.08463
   19 H                |   7 C                |     2.06308  |     1.09173
   20 H                |   7 C                |     2.06308  |     1.09173
   21 H                |   8 C                |     2.06308  |     1.09173
   22 H                |   8 C                |     2.06308  |     1.09173
 ------------------------------------------------------------------------------
                         number of included internuclear distances:         22
 ==============================================================================



 ==============================================================================
                                 internuclear angles
 ------------------------------------------------------------------------------
        center 1       |       center 2       |       center 3       |  degrees
 ------------------------------------------------------------------------------
    2 C                |   1 C                |   3 C                |   117.84
    2 C                |   1 C                |   9 N                |   121.08
    3 C                |   1 C                |   9 N                |   121.08
    1 C                |   2 C                |   5 C                |   120.98
    1 C                |   2 C                |  13 H                |   120.37
    5 C                |   2 C                |  13 H                |   118.65
    1 C                |   3 C                |   6 C                |   120.98
    1 C                |   3 C                |  14 H                |   120.37
    6 C                |   3 C                |  14 H                |   118.65
    5 C                |   4 C                |   6 C                |   120.80
    5 C                |   4 C                |  10 N                |   119.60
    6 C                |   4 C                |  10 N                |   119.60
    2 C                |   5 C                |   4 C                |   119.70
    2 C                |   5 C                |  15 H                |   120.93
    4 C                |   5 C                |  15 H                |   119.37
    3 C                |   6 C                |   4 C                |   119.70
    3 C                |   6 C                |  16 H                |   120.93
    4 C                |   6 C                |  16 H                |   119.37
    9 N                |   7 C                |  17 H                |   108.82
    9 N                |   7 C                |  19 H                |   111.68
    9 N                |   7 C                |  20 H                |   111.68
   17 H                |   7 C                |  19 H                |   108.16
   17 H                |   7 C                |  20 H                |   108.16
   19 H                |   7 C                |  20 H                |   108.20
    9 N                |   8 C                |  18 H                |   108.82
    9 N                |   8 C                |  21 H                |   111.68
    9 N                |   8 C                |  22 H                |   111.68
   18 H                |   8 C                |  21 H                |   108.16
   18 H                |   8 C                |  22 H                |   108.16
   21 H                |   8 C                |  22 H                |   108.20
    1 C                |   9 N                |   7 C                |   120.02
    1 C                |   9 N                |   8 C                |   120.02
    7 C                |   9 N                |   8 C                |   119.97
    4 C                |  10 N                |  11 O                |   117.68
    4 C                |  10 N                |  12 O                |   117.68
   11 O                |  10 N                |  12 O                |   124.64
 ------------------------------------------------------------------------------
                            number of included internuclear angles:         36
 ==============================================================================





 Summary of "ao basis" -> "" (cartesian)
 ------------------------------------------------------------------------------
       Tag                 Description            Shells   Functions and Types
 ---------------- ------------------------------  ------  ---------------------
 *                         def2-TZVPD                 on all atoms 


  pbe96 is a nonlocal functional; adding pw91lda local functional. 

                                 NWChem DFT Module
                                 -----------------


                      Basis "ao basis" -> "ao basis" (cartesian)
                      -----
  C (Carbon)
  ----------
            Exponent  Coefficients 
       -------------- ---------------------------------------------------------
  1 S  1.35753497E+04  0.000222
  1 S  2.03523337E+03  0.001723
  1 S  4.63225624E+02  0.008926
  1 S  1.31200196E+02  0.035728
  1 S  4.28530159E+01  0.110763
  1 S  1.55841858E+01  0.242956

  2 S  6.20671385E+00  0.414403
  2 S  2.57648965E+00  0.237450

  3 S  5.76963394E-01  1.000000

  4 S  2.29728314E-01  1.000000

  5 S  9.51644400E-02  1.000000

  6 S  4.84754014E-02  1.000000

  7 P  3.46972322E+01  0.005333
  7 P  7.95826228E+00  0.035864
  7 P  2.37808269E+00  0.142159
  7 P  8.14332082E-01  0.342705

  8 P  2.88875473E-01  1.000000

  9 P  1.00568237E-01  1.000000

 10 D  1.09700000E+00  1.000000

 11 D  3.18000000E-01  1.000000

 12 D  9.09853364E-02  1.000000

 13 F  7.61000000E-01  1.000000

  N (Nitrogen)
  ------------
            Exponent  Coefficients 
       -------------- ---------------------------------------------------------
  1 S  1.97308006E+04  0.000219
  1 S  2.95789587E+03  0.001696
  1 S  6.73221336E+02  0.008795
  1 S  1.90682495E+02  0.035359
  1 S  6.22954419E+01  0.110958
  1 S  2.26541612E+01  0.249830

  2 S  8.97914774E+00  0.406239
  2 S  3.68630024E+00  0.243382

  3 S  8.46600768E-01  1.000000

  4 S  3.36471338E-01  1.000000

  5 S  1.36476537E-01  1.000000

  6 S  6.84416058E-02  1.000000

  7 P  4.92003805E+01  0.005555
  7 P  1.13467905E+01  0.038052
  7 P  3.42739724E+00  0.149537
  7 P  1.17855251E+00  0.349493

  8 P  4.16422050E-01  1.000000

  9 P  1.42608260E-01  1.000000

 10 D  1.65400000E+00  1.000000

 11 D  4.69000000E-01  1.000000

 12 D  1.28296421E-01  1.000000

 13 F  1.09300000E+00  1.000000

  O (Oxygen)
  ----------
            Exponent  Coefficients 
       -------------- ---------------------------------------------------------
  1 S  2.70323826E+04  0.000217
  1 S  4.05238714E+03  0.001684
  1 S  9.22327227E+02  0.008740
  1 S  2.61240710E+02  0.035240
  1 S  8.53546414E+01  0.111535
  1 S  3.10350352E+01  0.255890

  2 S  1.22608607E+01  0.397687
  2 S  4.99870760E+00  0.246278

  3 S  1.17031082E+00  1.000000

  4 S  4.64747410E-01  1.000000

  5 S  1.85045364E-01  1.000000

  6 S  7.02880263E-02  1.000000

  7 P  6.32749548E+01  0.006069
  7 P  1.46270494E+01  0.041913
  7 P  4.45012235E+00  0.161538
  7 P  1.52757996E+00  0.357070

  8 P  5.29351179E-01  1.000000

  9 P  1.74784213E-01  1.000000

 10 P  5.11127457E-02  1.000000

 11 D  2.31400000E+00  1.000000

 12 D  6.45000000E-01  1.000000

 13 D  1.46964774E-01  1.000000

 14 F  1.42800000E+00  1.000000

  H (Hydrogen)
  ------------
            Exponent  Coefficients 
       -------------- ---------------------------------------------------------
  1 S  3.40613410E+01  0.006025
  1 S  5.12357460E+00  0.045021
  1 S  1.16466260E+00  0.201897

  2 S  3.27230410E-01  1.000000

  3 S  1.03072410E-01  1.000000

  4 P  8.00000000E-01  1.000000

  5 P  9.57741296E-02  1.000000



 Summary of "ao basis" -> "ao basis" (cartesian)
 ------------------------------------------------------------------------------
       Tag                 Description            Shells   Functions and Types
 ---------------- ------------------------------  ------  ---------------------
 C                         def2-TZVPD               13       43   6s3p3d1f
 N                         def2-TZVPD               13       43   6s3p3d1f
 O                         def2-TZVPD               14       46   6s4p3d1f
 H                         def2-TZVPD                5        9   3s2p




 Summary of "ao basis" -> "ao basis" (cartesian)
 ------------------------------------------------------------------------------
       Tag                 Description            Shells   Functions and Types
 ---------------- ------------------------------  ------  ---------------------
 C                         def2-TZVPD               13       43   6s3p3d1f
 N                         def2-TZVPD               13       43   6s3p3d1f
 O                         def2-TZVPD               14       46   6s4p3d1f
 H                         def2-TZVPD                5        9   3s2p


  int_init: cando_txs set to always be  F
  Caching 1-el integrals 

            General Information
            -------------------
          SCF calculation type: DFT
          Wavefunction type:  closed shell.
          No. of atoms     :    22
          No. of electrons :    88
           Alpha electrons :    44
            Beta electrons :    44
          Charge           :     0
          Spin multiplicity:     1
          Use of symmetry is: off; symmetry adaption is: off
          Maximum number of iterations:  50
          AO basis - number of functions:   612
                     number of shells:   208
          Convergence on energy requested:  1.00D-06
          Convergence on density requested:  1.00D-05
          Convergence on gradient requested:  5.00D-04

              XC Information
              --------------
                     Hartree-Fock (Exact) Exchange  1.000          
                     LC-wPBE(h)Exchange Functional  1.000          
            Perdew 1991 LDA Correlation Functional  1.000 local    
           PerdewBurkeErnz. Correlation Functional  1.000 non-local

           Range-Separation Parameters        
           ---------------------------
           Alpha           :  0.00
           Beta            :  1.00
           Gamma           :  0.26
           Short-Range HF  :     F

             Grid Information
             ----------------
          Grid used for XC integration:  xfine     
          Radial quadrature: Mura-Knowles        
          Angular quadrature: Lebedev. 
          Tag              B.-S. Rad. Rad. Pts. Rad. Cut. Ang. Pts.
          ---              ---------- --------- --------- ---------
          C                   0.70      100          19.0      1454
          N                   0.65      100          17.0      1454
          O                   0.60      100          19.0      1454
          H                   0.35      100          21.0      1202
          Grid pruning is: on 
          Number of quadrature shells:  2200
          Spatial weights used:  Erf1

          Convergence Information
          -----------------------
          Convergence aids based upon iterative change in 
          total energy or number of iterations. 
          Levelshifting, if invoked, occurs when the 
          HOMO/LUMO gap drops below (HL_TOL):  1.00D-02
          DIIS, if invoked, will attempt to extrapolate 
          using up to (NFOCK): 10 stored Fock matrices.

                    Damping( 0%)  Levelshifting(0.5)       DIIS
                  --------------- ------------------- ---------------
          dE  on:    start            ASAP                start   
          dE off:    2 iters         50 iters            50 iters 


      Screening Tolerance Information
      -------------------------------
          Density screening/tol_rho:  1.00D-10
          AO Gaussian exp screening on grid/accAOfunc:  14
          CD Gaussian exp screening on grid/accCDfunc:  20
          XC Gaussian exp screening on grid/accXCfunc:  20
          Schwarz screening/accCoul:  1.00D-08

  
  CAM type calculations without CDFIT are
  only available with the direct option.
  Forcing Direct SCF
  

 WARNING : Found    17 linear dependencies 
 S eigenvalue threshold:     1.00000E-05
 Smallest S eigenvalue :     3.54157E-09
 Largest  S eigenvalue :     9.21957E-06


 !! The overlap matrix has  17 vectors deemed linearly dependent with
    eigenvalues:
 3.54D-09 8.25D-08 3.55D-07 4.20D-07 6.64D-07 1.12D-06 1.30D-06 1.40D-06
 1.84D-06 3.16D-06 3.92D-06 4.11D-06 5.11D-06 6.67D-06 7.67D-06 8.20D-06
 9.22D-06


      Superposition of Atomic Density Guess
      -------------------------------------

 Sum of atomic energies:        -564.56070913

      Non-variational initial energy
      ------------------------------

 Total energy =    -572.678512
 1-e energy   =   -2120.087143
 2-e energy   =     864.982933
 HOMO         =      -0.221531
 LUMO         =      -0.072576

  WARNING: movecs_in_org=atomic not equal to movecs_in=./nitrodimethylaniline.movecs
   Time after variat. SCF:     60.0
   Time prior to 1st pass:     60.0

 Grid_pts file          = ./nitrodimethylaniline.gridpts.00
 Record size in doubles =  12289        No. of grid_pts per rec  =   3070
 Max. records in memory =     25        Max. recs in file   =  21109390

 Grid integrated density:      88.573578231621
 Requested integration accuracy:   0.10E-07

           Memory utilization after 1st SCF pass: 
           Heap Space remaining (MW):     7864.14          7864136402
          Stack Space remaining (MW):    13107.20         13107196292

   convergence    iter        energy       DeltaE   RMS-Dens  Diis-err    time
 ---------------- ----- ----------------- --------- --------- ---------  ------
 d= 0,ls=0.0,diis     1   -566.4867109233 -1.25D+03  1.84D+02  2.01D+04   172.4
 Grid integrated density:      87.999997464426
 Requested integration accuracy:   0.10E-07
 d= 0,ls=0.5,diis     2   -548.0285218921  1.85D+01  1.70D+02  9.89D+01   305.2
 Grid integrated density:      88.000013681678
 Requested integration accuracy:   0.10E-07
 d= 0,ls=0.5,diis     3   -564.0054388065 -1.60D+01  7.32D+01  4.29D+01   437.9
 d= 0,ls=0.5,diis     4   -570.0080328132 -6.00D+00  5.29D-01  2.83D+00   558.9
 d= 0,ls=0.5,diis     5   -570.3722156148 -3.64D-01  8.87D-02  3.62D-01   678.3
 Grid integrated density:      88.000001556833
 Requested integration accuracy:   0.10E-07
  Resetting Diis
 d= 0,ls=0.5,diis     6   -570.4202337427 -4.80D-02  1.52D-02  4.23D-02   792.3
 d= 0,ls=0.5,diis     7   -570.4309487170 -1.07D-02  3.64D-03  1.27D-02   907.7
 d= 0,ls=0.5,diis     8   -570.4350125407 -4.06D-03  1.16D-03  5.21D-03  1023.7
 d= 0,ls=0.5,diis     9   -570.4368995210 -1.89D-03  6.82D-04  2.49D-03  1138.5
 d= 0,ls=0.5,diis    10   -570.4381222018 -1.22D-03  2.54D-04  9.98D-04  1259.4
 d= 0,ls=0.5,diis    11   -570.4386901956 -5.68D-04  1.13D-04  4.43D-04  1375.0
 d= 0,ls=0.5,diis    12   -570.4390070371 -3.17D-04  6.45D-05  2.14D-04  1489.9
 d= 0,ls=0.5,diis    13   -570.4391567653 -1.50D-04  4.01D-05  9.11D-05  1603.6
 d= 0,ls=0.5,diis    14   -570.4392285464 -7.18D-05  2.06D-05  5.59D-05  1721.1
 d= 0,ls=0.5,diis    15   -570.4392600197 -3.15D-05  1.28D-05  2.61D-05  1853.1
 d= 0,ls=0.5,diis    16   -570.4392741737 -1.42D-05  8.23D-06  1.28D-05  1967.0
 d= 0,ls=0.5,diis    17   -570.4392801926 -6.02D-06  5.70D-06  5.45D-06  2083.9
 d= 0,ls=0.5,diis    18   -570.4392826513 -2.46D-06  3.56D-06  2.77D-06  2198.3
 d= 0,ls=0.5,diis    19   -570.4392837010 -1.05D-06  2.38D-06  1.27D-06  2318.6
 d= 0,ls=0.5,diis    20   -570.4392841416 -4.41D-07  1.43D-06  5.56D-07  2433.4


         Total DFT energy =     -570.439284324491
      One electron energy =    -2127.964048415169
           Coulomb energy =      952.756238321413
    Exchange-Corr. energy =      -77.657170973573
 Nuclear repulsion energy =      682.425696742837

 Numeric. integr. density =       87.999999468300

     Total iterative time =   2486.7s



                       DFT Final Molecular Orbital Analysis
                       ------------------------------------

 Vector    1  Occ=2.000000D+00  E=-1.891663D+01
              MO Center=  7.9D-01,  3.2D-10, -3.5D+00, r^2= 5.7D-01
   Bfn.  Coefficient  Atom+Function         Bfn.  Coefficient  Atom+Function  
  ----- ------------  ---------------      ----- ------------  ---------------
   432      0.588541  11 O  s               431      0.405446  11 O  s         
   478     -0.232993  12 O  s               477     -0.160504  12 O  s         
   434     -0.097760  11 O  s               433      0.087604  11 O  s         
   480      0.039361  12 O  s               479     -0.035068  12 O  s         

 Vector    2  Occ=2.000000D+00  E=-1.891660D+01
              MO Center= -7.9D-01, -1.0D-10, -3.5D+00, r^2= 5.7D-01
   Bfn.  Coefficient  Atom+Function         Bfn.  Coefficient  Atom+Function  
  ----- ------------  ---------------      ----- ------------  ---------------
   478      0.588535  12 O  s               477      0.405448  12 O  s         
   432      0.232978  11 O  s               431      0.160507  11 O  s         
   480     -0.097140  12 O  s               479      0.087241  12 O  s         
   434     -0.037794  11 O  s               433      0.034149  11 O  s         

 Vector    3  Occ=2.000000D+00  E=-1.435659D+01
              MO Center=  7.7D-10, -3.9D-09, -2.9D+00, r^2= 2.0D-02
   Bfn.  Coefficient  Atom+Function         Bfn.  Coefficient  Atom+Function  
  ----- ------------  ---------------      ----- ------------  ---------------
   389      0.619398  10 N  s               388      0.449528  10 N  s         
   391     -0.106037  10 N  s               390      0.097805  10 N  s         

 Vector    4  Occ=2.000000D+00  E=-1.418121D+01
              MO Center=  1.5D-09,  1.7D-09,  2.7D+00, r^2= 2.0D-02
   Bfn.  Coefficient  Atom+Function         Bfn.  Coefficient  Atom+Function  
  ----- ------------  ---------------      ----- ------------  ---------------
   346      0.619060   9 N  s               345      0.449506   9 N  s         
   348     -0.108829   9 N  s               347      0.099846   9 N  s         

 Vector    5  Occ=2.000000D+00  E=-1.010105D+01
              MO Center=  1.1D-09,  1.1D-11,  1.3D+00, r^2= 2.8D-02
   Bfn.  Coefficient  Atom+Function         Bfn.  Coefficient  Atom+Function  
  ----- ------------  ---------------      ----- ------------  ---------------
     2      0.599512   1 C  s                 1      0.468106   1 C  s         
     3      0.101197   1 C  s                 4     -0.099812   1 C  s         

 Vector    6  Occ=2.000000D+00  E=-1.008259D+01
              MO Center=  2.6D-01,  2.7D-09,  3.4D+00, r^2= 1.5D+00
   Bfn.  Coefficient  Atom+Function         Bfn.  Coefficient  Atom+Function  
  ----- ------------  ---------------      ----- ------------  ---------------
   260      0.466053   7 C  s               303     -0.377127   8 C  s         
   259      0.363927   7 C  s               302     -0.294487   8 C  s         
   262     -0.079629   7 C  s               261      0.078614   7 C  s         
   305      0.064351   8 C  s               304     -0.063629   8 C  s         

 Vector    7  Occ=2.000000D+00  E=-1.008259D+01
              MO Center= -2.6D-01,  2.8D-09,  3.4D+00, r^2= 1.5D+00
   Bfn.  Coefficient  Atom+Function         Bfn.  Coefficient  Atom+Function  
  ----- ------------  ---------------      ----- ------------  ---------------
   303      0.466051   8 C  s               260      0.377125   7 C  s         
   302      0.363930   8 C  s               259      0.294490   7 C  s         
   305     -0.080024   8 C  s               304      0.078542   8 C  s         
   262     -0.064839   7 C  s               261      0.063540   7 C  s         

 Vector    8  Occ=2.000000D+00  E=-1.007959D+01
              MO Center= -1.2D-07, -3.7D-09, -1.5D+00, r^2= 2.8D-02
   Bfn.  Coefficient  Atom+Function         Bfn.  Coefficient  Atom+Function  
  ----- ------------  ---------------      ----- ------------  ---------------
   131      0.599339   4 C  s               130      0.468029   4 C  s         
   132      0.102623   4 C  s               133     -0.100799   4 C  s         

 Vector    9  Occ=2.000000D+00  E=-1.005800D+01
              MO Center= -9.2D-01,  6.2D-10, -8.0D-01, r^2= 6.4D-01
   Bfn.  Coefficient  Atom+Function         Bfn.  Coefficient  Atom+Function  
  ----- ------------  ---------------      ----- ------------  ---------------
   217      0.562058   6 C  s               216      0.438894   6 C  s         
   174     -0.207668   5 C  s               173     -0.162158   5 C  s         
   218      0.096389   6 C  s               219     -0.095114   6 C  s         
   175     -0.035542   5 C  s               176      0.034725   5 C  s         

 Vector   10  Occ=2.000000D+00  E=-1.005799D+01
              MO Center=  9.2D-01,  7.9D-10, -8.0D-01, r^2= 6.4D-01
   Bfn.  Coefficient  Atom+Function         Bfn.  Coefficient  Atom+Function  
  ----- ------------  ---------------      ----- ------------  ---------------
   174      0.562042   5 C  s               173      0.438884   5 C  s         
   217      0.207626   6 C  s               216      0.162133   6 C  s         
   175      0.096448   5 C  s               176     -0.095469   5 C  s         
   218      0.035701   6 C  s               219     -0.035685   6 C  s         

 Vector   11  Occ=2.000000D+00  E=-1.004895D+01
              MO Center= -1.2D+00, -8.1D-10,  5.8D-01, r^2= 3.0D-02
   Bfn.  Coefficient  Atom+Function         Bfn.  Coefficient  Atom+Function  
  ----- ------------  ---------------      ----- ------------  ---------------
    88      0.599158   3 C  s                87      0.467892   3 C  s         
    89      0.102713   3 C  s                90     -0.101392   3 C  s         

 Vector   12  Occ=2.000000D+00  E=-1.004894D+01
              MO Center=  1.2D+00,  3.6D-09,  5.8D-01, r^2= 3.0D-02
   Bfn.  Coefficient  Atom+Function         Bfn.  Coefficient  Atom+Function  
  ----- ------------  ---------------      ----- ------------  ---------------
    45      0.599157   2 C  s                44      0.467892   2 C  s         
    46      0.102712   2 C  s                47     -0.101382   2 C  s         

 Vector   13  Occ=2.000000D+00  E=-1.279176D+00
              MO Center=  2.1D-05, -4.8D-07, -3.2D+00, r^2= 8.3D-01
   Bfn.  Coefficient  Atom+Function         Bfn.  Coefficient  Atom+Function  
  ----- ------------  ---------------      ----- ------------  ---------------
   391      0.309587  10 N  s               390      0.246588  10 N  s         
   434      0.191211  11 O  s               480      0.191202  12 O  s         
   389     -0.172560  10 N  s               433      0.160673  11 O  s         
   479      0.160666  12 O  s               432     -0.111447  11 O  s         
   478     -0.111442  12 O  s               437     -0.085877  11 O  px        

 Vector   14  Occ=2.000000D+00  E=-1.108104D+00
              MO Center= -1.6D-05,  8.3D-08, -3.3D+00, r^2= 1.1D+00
   Bfn.  Coefficient  Atom+Function         Bfn.  Coefficient  Atom+Function  
  ----- ------------  ---------------      ----- ------------  ---------------
   434      0.283826  11 O  s               480     -0.283829  12 O  s         
   394      0.240361  10 N  px              433      0.216773  11 O  s         
   479     -0.216775  12 O  s               432     -0.150018  11 O  s         
   478      0.150020  12 O  s               435      0.135511  11 O  s         
   481     -0.135518  12 O  s               397      0.108357  10 N  px        

 Vector   15  Occ=2.000000D+00  E=-1.052709D+00
              MO Center=  1.1D-06,  8.8D-07,  2.5D+00, r^2= 1.3D+00
   Bfn.  Coefficient  Atom+Function         Bfn.  Coefficient  Atom+Function  
  ----- ------------  ---------------      ----- ------------  ---------------
   348      0.313999   9 N  s               347      0.263651   9 N  s         
   346     -0.178539   9 N  s                 3      0.142334   1 C  s         
     4      0.116163   1 C  s               262      0.095784   7 C  s         
   305      0.095785   8 C  s                 2     -0.093740   1 C  s         
   261      0.092044   7 C  s               304      0.092044   8 C  s         

 Vector   16  Occ=2.000000D+00  E=-9.572405D-01
              MO Center= -2.4D-05, -1.6D-07, -4.7D-01, r^2= 3.1D+00
   Bfn.  Coefficient  Atom+Function         Bfn.  Coefficient  Atom+Function  
  ----- ------------  ---------------      ----- ------------  ---------------
   132      0.187577   4 C  s               133      0.183830   4 C  s         
   175      0.147335   5 C  s               218      0.147342   6 C  s         
   131     -0.118882   4 C  s                46      0.112068   2 C  s         
    89      0.112074   3 C  s               176      0.111620   5 C  s         
   219      0.111624   6 C  s               396      0.094543  10 N  pz        

 Vector   17  Occ=2.000000D+00  E=-8.791543D-01
              MO Center= -5.9D-06, -2.6D-07, -1.9D-01, r^2= 5.9D+00
   Bfn.  Coefficient  Atom+Function         Bfn.  Coefficient  Atom+Function  
  ----- ------------  ---------------      ----- ------------  ---------------
   133     -0.200098   4 C  s                 4      0.190136   1 C  s         
     3      0.169756   1 C  s               396     -0.161570  10 N  pz        
   132     -0.156483   4 C  s                46      0.116862   2 C  s         
    89      0.116870   3 C  s               391     -0.109845  10 N  s         
     2     -0.103521   1 C  s               131      0.103582   4 C  s         

 Vector   18  Occ=2.000000D+00  E=-8.555150D-01
              MO Center= -1.4D-05,  8.0D-07,  9.2D-01, r^2= 4.7D+00
   Bfn.  Coefficient  Atom+Function         Bfn.  Coefficient  Atom+Function  
  ----- ------------  ---------------      ----- ------------  ---------------
    46      0.162307   2 C  s                89     -0.162305   3 C  s         
    47      0.155722   2 C  s                90     -0.155718   3 C  s         
   175      0.143115   5 C  s               218     -0.143118   6 C  s         
   262      0.132447   7 C  s               305     -0.132458   8 C  s         
   176      0.122206   5 C  s               219     -0.122207   6 C  s         

 Vector   19  Occ=2.000000D+00  E=-8.276888D-01
              MO Center=  1.5D-05,  1.4D-06,  2.1D+00, r^2= 5.7D+00
   Bfn.  Coefficient  Atom+Function         Bfn.  Coefficient  Atom+Function  
  ----- ------------  ---------------      ----- ------------  ---------------
   262      0.220660   7 C  s               305     -0.220651   8 C  s         
   261      0.176417   7 C  s               304     -0.176410   8 C  s         
   351      0.132056   9 N  px              175     -0.124283   5 C  s         
   218      0.124290   6 C  s               176     -0.122356   5 C  s         
   219      0.122361   6 C  s               260     -0.115089   7 C  s         

 Vector   20  Occ=2.000000D+00  E=-8.036822D-01
              MO Center=  1.0D-05,  4.9D-07,  7.5D-01, r^2= 8.1D+00
   Bfn.  Coefficient  Atom+Function         Bfn.  Coefficient  Atom+Function  
  ----- ------------  ---------------      ----- ------------  ---------------
     4      0.189016   1 C  s               353     -0.148986   9 N  pz        
   391      0.146169  10 N  s               262     -0.144631   7 C  s         
   305     -0.144642   8 C  s               396      0.140728  10 N  pz        
     3      0.125000   1 C  s               138     -0.118619   4 C  pz        
   261     -0.114022   7 C  s               304     -0.114029   8 C  s         

 Vector   21  Occ=2.000000D+00  E=-7.295389D-01
              MO Center= -9.8D-06,  8.1D-07,  6.0D-01, r^2= 8.6D+00
   Bfn.  Coefficient  Atom+Function         Bfn.  Coefficient  Atom+Function  
  ----- ------------  ---------------      ----- ------------  ---------------
   391     -0.176096  10 N  s               348      0.166971   9 N  s         
   138      0.127851   4 C  pz                9      0.124764   1 C  pz        
   262     -0.120636   7 C  s               305     -0.120632   8 C  s         
   347      0.121077   9 N  s               390     -0.113844  10 N  s         
    47     -0.104100   2 C  s                90     -0.104109   3 C  s         

 Vector   22  Occ=2.000000D+00  E=-7.104703D-01
              MO Center=  7.5D-06,  2.7D-07,  1.4D-01, r^2= 4.7D+00
   Bfn.  Coefficient  Atom+Function         Bfn.  Coefficient  Atom+Function  
  ----- ------------  ---------------      ----- ------------  ---------------
   176     -0.176860   5 C  s               219      0.176855   6 C  s         
    47      0.174105   2 C  s                90     -0.174098   3 C  s         
   136     -0.160949   4 C  px                7      0.157904   1 C  px        
    46      0.148441   2 C  s                89     -0.148440   3 C  s         
   175     -0.145375   5 C  s               218      0.145372   6 C  s         

 Vector   23  Occ=2.000000D+00  E=-6.663491D-01
              MO Center=  2.6D-06,  2.0D-07, -1.3D-02, r^2= 5.5D+00
   Bfn.  Coefficient  Atom+Function         Bfn.  Coefficient  Atom+Function  
  ----- ------------  ---------------      ----- ------------  ---------------
     4      0.147273   1 C  s               133      0.141589   4 C  s         
   179     -0.139435   5 C  px              222      0.139440   6 C  px        
    50     -0.136180   2 C  px               93      0.136183   3 C  px        
     3      0.130565   1 C  s               132      0.129582   4 C  s         
   391     -0.115327  10 N  s               392     -0.111340  10 N  s         

 Vector   24  Occ=2.000000D+00  E=-6.433669D-01
              MO Center=  3.5D-05,  5.7D-07, -5.2D-01, r^2= 1.1D+01
   Bfn.  Coefficient  Atom+Function         Bfn.  Coefficient  Atom+Function  
  ----- ------------  ---------------      ----- ------------  ---------------
   391      0.160289  10 N  s               392     -0.155172  10 N  s         
   437     -0.142042  11 O  px              483      0.142029  12 O  px        
   353      0.138587   9 N  pz              434     -0.132161  11 O  s         
   480     -0.132154  12 O  s               396     -0.125499  10 N  pz        
   433     -0.118548  11 O  s               479     -0.118540  12 O  s         

 Vector   25  Occ=2.000000D+00  E=-6.180064D-01
              MO Center=  1.4D-05, -5.1D-06, -3.0D+00, r^2= 1.4D+00
   Bfn.  Coefficient  Atom+Function         Bfn.  Coefficient  Atom+Function  
  ----- ------------  ---------------      ----- ------------  ---------------
   395      0.349083  10 N  py              398      0.281837  10 N  py        
   438      0.189734  11 O  py              484      0.189726  12 O  py        
   441      0.155202  11 O  py              487      0.155195  12 O  py        
   401      0.110456  10 N  py              137      0.095057   4 C  py        
   444      0.077778  11 O  py              490      0.077774  12 O  py        

 Vector   26  Occ=2.000000D+00  E=-6.151724D-01
              MO Center=  5.2D-05,  7.4D-06, -1.8D-01, r^2= 1.1D+01
   Bfn.  Coefficient  Atom+Function         Bfn.  Coefficient  Atom+Function  
  ----- ------------  ---------------      ----- ------------  ---------------
   396      0.190718  10 N  pz              353      0.176763   9 N  pz        
   437      0.149057  11 O  px              483     -0.149035  12 O  px        
     9     -0.137306   1 C  pz              263     -0.127823   7 C  s         
   306     -0.127820   8 C  s               265     -0.123637   7 C  px        
   308      0.123640   8 C  px              399      0.115487  10 N  pz        

 Vector   27  Occ=2.000000D+00  E=-5.993646D-01
              MO Center= -2.7D-05,  3.8D-07,  1.7D-01, r^2= 9.4D+00
   Bfn.  Coefficient  Atom+Function         Bfn.  Coefficient  Atom+Function  
  ----- ------------  ---------------      ----- ------------  ---------------
   351      0.162777   9 N  px              136      0.139845   4 C  px        
     7      0.133214   1 C  px              394      0.130691  10 N  px        
    30     -0.129486   1 C  dxz             181     -0.115213   5 C  pz        
   224      0.115214   6 C  pz              357      0.109957   9 N  px        
    52      0.101741   2 C  pz               95     -0.101740   3 C  pz        

 Vector   28  Occ=2.000000D+00  E=-5.781908D-01
              MO Center= -1.1D-06, -2.1D-06,  2.9D+00, r^2= 2.9D+00
   Bfn.  Coefficient  Atom+Function         Bfn.  Coefficient  Atom+Function  
  ----- ------------  ---------------      ----- ------------  ---------------
   352      0.210381   9 N  py              266      0.189598   7 C  py        
   309      0.189598   8 C  py              355      0.181206   9 N  py        
   272      0.147811   7 C  py              315      0.147806   8 C  py        
   269      0.134351   7 C  py              312      0.134351   8 C  py        
     8      0.110288   1 C  py              578      0.100175  19 H  s         

 Vector   29  Occ=2.000000D+00  E=-5.747370D-01
              MO Center= -7.0D-05,  3.3D-07, -1.6D+00, r^2= 1.1D+01
   Bfn.  Coefficient  Atom+Function         Bfn.  Coefficient  Atom+Function  
  ----- ------------  ---------------      ----- ------------  ---------------
   394      0.229108  10 N  px              437     -0.172332  11 O  px        
   483     -0.172347  12 O  px              397      0.157732  10 N  px        
   351     -0.147220   9 N  px              439      0.130951  11 O  pz        
   485     -0.130947  12 O  pz              433     -0.124240  11 O  s         
   434     -0.124692  11 O  s               479      0.124252  12 O  s         

 Vector   30  Occ=2.000000D+00  E=-5.518641D-01
              MO Center= -2.7D-06, -6.1D-07,  4.6D-01, r^2= 7.1D+00
   Bfn.  Coefficient  Atom+Function         Bfn.  Coefficient  Atom+Function  
  ----- ------------  ---------------      ----- ------------  ---------------
    33      0.153901   1 C  dzz               4      0.140974   1 C  s         
   179      0.140138   5 C  px              222     -0.140149   6 C  px        
     3      0.122719   1 C  s               133     -0.122212   4 C  s         
   542      0.119844  15 H  s               551      0.119849  16 H  s         
   176      0.117581   5 C  s               219      0.117577   6 C  s         

 Vector   31  Occ=2.000000D+00  E=-5.259157D-01
              MO Center= -3.6D-05,  2.4D-07,  3.2D-01, r^2= 5.3D+00
   Bfn.  Coefficient  Atom+Function         Bfn.  Coefficient  Atom+Function  
  ----- ------------  ---------------      ----- ------------  ---------------
    50      0.163858   2 C  px               93      0.163869   3 C  px        
   179      0.158066   5 C  px              222      0.158056   6 C  px        
   185      0.121485   5 C  px              228      0.121481   6 C  px        
   273     -0.117313   7 C  pz              316      0.117304   8 C  pz        
   524      0.117787  13 H  s               533     -0.117800  14 H  s         

 Vector   32  Occ=2.000000D+00  E=-5.238066D-01
              MO Center= -6.9D-05,  8.6D-07,  8.9D-01, r^2= 6.1D+00
   Bfn.  Coefficient  Atom+Function         Bfn.  Coefficient  Atom+Function  
  ----- ------------  ---------------      ----- ------------  ---------------
   351      0.199802   9 N  px              357      0.180428   9 N  px        
    52     -0.167503   2 C  pz               95      0.167525   3 C  pz        
   136     -0.153450   4 C  px              181      0.152088   5 C  pz        
   224     -0.152110   6 C  pz              354      0.130703   9 N  px        
     7     -0.126737   1 C  px              265     -0.118360   7 C  px        

 Vector   33  Occ=2.000000D+00  E=-5.142231D-01
              MO Center=  3.0D-06, -4.4D-07,  3.3D+00, r^2= 3.6D+00
   Bfn.  Coefficient  Atom+Function         Bfn.  Coefficient  Atom+Function  
  ----- ------------  ---------------      ----- ------------  ---------------
   266      0.241923   7 C  py              309     -0.241922   8 C  py        
   272      0.228611   7 C  py              315     -0.228599   8 C  py        
   269      0.157240   7 C  py              312     -0.157240   8 C  py        
   578      0.151453  19 H  s               587     -0.151453  20 H  s         
   596      0.151452  21 H  s               605     -0.151453  22 H  s         

 Vector   34  Occ=2.000000D+00  E=-5.122750D-01
              MO Center=  5.9D-05, -1.1D-08,  1.7D+00, r^2= 7.0D+00
   Bfn.  Coefficient  Atom+Function         Bfn.  Coefficient  Atom+Function  
  ----- ------------  ---------------      ----- ------------  ---------------
    33      0.304848   1 C  dzz             263     -0.171573   7 C  s         
   306     -0.171576   8 C  s               267      0.150878   7 C  pz        
   310      0.150877   8 C  pz              187     -0.148203   5 C  pz        
   230     -0.148193   6 C  pz               52      0.134565   2 C  pz        
    95      0.134540   3 C  pz              560      0.126779  17 H  s         

 Vector   35  Occ=2.000000D+00  E=-4.865828D-01
              MO Center=  8.8D-05, -7.7D-07,  9.5D-01, r^2= 6.2D+00
   Bfn.  Coefficient  Atom+Function         Bfn.  Coefficient  Atom+Function  
  ----- ------------  ---------------      ----- ------------  ---------------
   353     -0.197849   9 N  pz                9      0.192872   1 C  pz        
   181      0.174674   5 C  pz              224      0.174690   6 C  pz        
    52     -0.159878   2 C  pz               95     -0.159903   3 C  pz        
   359     -0.136404   9 N  pz               12      0.126264   1 C  pz        
   356     -0.117847   9 N  pz              267      0.113390   7 C  pz        

 Vector   36  Occ=2.000000D+00  E=-4.845719D-01
              MO Center= -1.6D-05, -2.1D-07,  3.1D-01, r^2= 4.6D+00
   Bfn.  Coefficient  Atom+Function         Bfn.  Coefficient  Atom+Function  
  ----- ------------  ---------------      ----- ------------  ---------------
     8      0.169795   1 C  py               51      0.151033   2 C  py        
    94      0.151037   3 C  py              180      0.145288   5 C  py        
   223      0.145292   6 C  py               11      0.140415   1 C  py        
   137      0.139828   4 C  py               54      0.132387   2 C  py        
    97      0.132390   3 C  py              183      0.122619   5 C  py        

 Vector   37  Occ=2.000000D+00  E=-4.844891D-01
              MO Center= -2.0D-05, -2.4D-06,  2.8D+00, r^2= 5.8D+00
   Bfn.  Coefficient  Atom+Function         Bfn.  Coefficient  Atom+Function  
  ----- ------------  ---------------      ----- ------------  ---------------
   273      0.231081   7 C  pz              316     -0.231076   8 C  pz        
   265     -0.162962   7 C  px              267      0.162960   7 C  pz        
   308     -0.162947   8 C  px              310     -0.163024   8 C  pz        
   561     -0.160508  17 H  s               570      0.160458  18 H  s         
   560      0.155390  17 H  s               569     -0.155445  18 H  s         

 Vector   38  Occ=2.000000D+00  E=-4.350458D-01
              MO Center=  2.0D-05, -2.8D-07,  2.5D-01, r^2= 5.0D+00
   Bfn.  Coefficient  Atom+Function         Bfn.  Coefficient  Atom+Function  
  ----- ------------  ---------------      ----- ------------  ---------------
     7      0.200118   1 C  px              136     -0.187827   4 C  px        
    50     -0.176769   2 C  px               93     -0.176769   3 C  px        
    56     -0.164911   2 C  px               99     -0.164911   3 C  px        
   179      0.162298   5 C  px              222      0.162297   6 C  px        
   185      0.156240   5 C  px              228      0.156238   6 C  px        

 Vector   39  Occ=2.000000D+00  E=-3.998886D-01
              MO Center= -2.1D-06, -1.3D-06,  8.3D-01, r^2= 6.0D+00
   Bfn.  Coefficient  Atom+Function         Bfn.  Coefficient  Atom+Function  
  ----- ------------  ---------------      ----- ------------  ---------------
   352      0.211018   9 N  py              137     -0.201556   4 C  py        
     8      0.197828   1 C  py              355      0.182977   9 N  py        
   140     -0.172637   4 C  py               11      0.158167   1 C  py        
   272     -0.143731   7 C  py              315     -0.143718   8 C  py        
   358      0.133829   9 N  py              180     -0.121319   5 C  py        

 Vector   40  Occ=2.000000D+00  E=-3.882453D-01
              MO Center= -4.1D-05, -9.0D-07, -3.4D+00, r^2= 2.1D+00
   Bfn.  Coefficient  Atom+Function         Bfn.  Coefficient  Atom+Function  
  ----- ------------  ---------------      ----- ------------  ---------------
   438      0.342365  11 O  py              484     -0.342380  12 O  py        
   441      0.285543  11 O  py              487     -0.285556  12 O  py        
   444      0.196217  11 O  py              490     -0.196226  12 O  py        
   410      0.093306  10 N  dxy             186      0.038647   5 C  py        
   229     -0.038638   6 C  py              180      0.037461   5 C  py        

 Vector   41  Occ=2.000000D+00  E=-3.802232D-01
              MO Center=  2.4D-04, -1.2D-06, -3.2D+00, r^2= 2.4D+00
   Bfn.  Coefficient  Atom+Function         Bfn.  Coefficient  Atom+Function  
  ----- ------------  ---------------      ----- ------------  ---------------
   439      0.315952  11 O  pz              485      0.315871  12 O  pz        
   442      0.252156  11 O  pz              488      0.252086  12 O  pz        
   445      0.200882  11 O  pz              491      0.200834  12 O  pz        
   138      0.170646   4 C  pz              392     -0.150039  10 N  s         
   393      0.127518  10 N  s               396     -0.101120  10 N  pz        

 Vector   42  Occ=2.000000D+00  E=-3.619269D-01
              MO Center= -2.5D-04, -1.3D-06, -3.4D+00, r^2= 2.1D+00
   Bfn.  Coefficient  Atom+Function         Bfn.  Coefficient  Atom+Function  
  ----- ------------  ---------------      ----- ------------  ---------------
   439      0.267119  11 O  pz              485     -0.267216  12 O  pz        
   437      0.234908  11 O  px              483      0.234919  12 O  px        
   442      0.230464  11 O  pz              488     -0.230542  12 O  pz        
   440      0.176652  11 O  px              486      0.176666  12 O  px        
   443      0.161281  11 O  px              489      0.161283  12 O  px        

 Vector   43  Occ=2.000000D+00  E=-3.587118D-01
              MO Center=  1.2D-05,  1.5D-06, -1.8D-01, r^2= 3.4D+00
   Bfn.  Coefficient  Atom+Function         Bfn.  Coefficient  Atom+Function  
  ----- ------------  ---------------      ----- ------------  ---------------
    51      0.213597   2 C  py               94     -0.213595   3 C  py        
   180      0.212807   5 C  py              223     -0.212806   6 C  py        
    54      0.185862   2 C  py               97     -0.185860   3 C  py        
   183      0.181284   5 C  py              226     -0.181282   6 C  py        
    29     -0.134914   1 C  dxy              57      0.131743   2 C  py        

 Vector   44  Occ=2.000000D+00  E=-2.941665D-01
              MO Center= -1.9D-05, -1.3D-06,  1.1D+00, r^2= 5.5D+00
   Bfn.  Coefficient  Atom+Function         Bfn.  Coefficient  Atom+Function  
  ----- ------------  ---------------      ----- ------------  ---------------
   352      0.301692   9 N  py              355      0.266838   9 N  py        
   358      0.223881   9 N  py              137      0.196752   4 C  py        
   272     -0.181392   7 C  py              315     -0.181369   8 C  py        
   140      0.174410   4 C  py               51     -0.157076   2 C  py        
    94     -0.157084   3 C  py               32      0.140601   1 C  dyz       

 Vector   45  Occ=0.000000D+00  E=-1.162692D-02
              MO Center=  9.0D-06,  1.1D-06, -2.1D+00, r^2= 5.5D+00
   Bfn.  Coefficient  Atom+Function         Bfn.  Coefficient  Atom+Function  
  ----- ------------  ---------------      ----- ------------  ---------------
   395      0.295110  10 N  py              398      0.274717  10 N  py        
   438     -0.228962  11 O  py              484     -0.228958  12 O  py        
   401      0.205913  10 N  py              161     -0.204417   4 C  dyz       
   444     -0.201866  11 O  py              490     -0.201865  12 O  py        
   441     -0.196819  11 O  py              487     -0.196817  12 O  py        

 Vector   46  Occ=0.000000D+00  E= 3.574398D-02
              MO Center=  5.0D-06,  1.1D-05,  3.7D+00, r^2= 1.5D+01
   Bfn.  Coefficient  Atom+Function         Bfn.  Coefficient  Atom+Function  
  ----- ------------  ---------------      ----- ------------  ---------------
   264      4.549720   7 C  s               307      4.549757   8 C  s         
   350     -3.369441   9 N  s               263     -2.743458   7 C  s         
   306     -2.743465   8 C  s               162      2.589435   4 C  dzz       
   349     -2.592688   9 N  s                 6     -1.923491   1 C  s         
   579      1.457034  19 H  s               588      1.457015  20 H  s         

 Vector   47  Occ=0.000000D+00  E= 3.941903D-02
              MO Center=  3.3D-05,  1.6D-06, -6.0D-02, r^2= 4.3D+00
   Bfn.  Coefficient  Atom+Function         Bfn.  Coefficient  Atom+Function  
  ----- ------------  ---------------      ----- ------------  ---------------
   579      0.755729  19 H  s               588     -0.755728  20 H  s         
   597      0.755698  21 H  s               606     -0.755701  22 H  s         
   272     -0.498699   7 C  py              315      0.498678   8 C  py        
   287     -0.286562   7 C  dxy             330     -0.286558   8 C  dxy       
   158      0.244745   4 C  dxy              29     -0.241412   1 C  dxy       

 Vector   48  Occ=0.000000D+00  E= 5.783997D-02
              MO Center=  1.6D-05,  8.1D-06,  3.1D+00, r^2= 1.9D+01
   Bfn.  Coefficient  Atom+Function         Bfn.  Coefficient  Atom+Function  
  ----- ------------  ---------------      ----- ------------  ---------------
   264      5.830478   7 C  s               307     -5.830594   8 C  s         
   525      1.948891  13 H  s               534     -1.948992  14 H  s         
   159     -1.638686   4 C  dxz             178      1.643669   5 C  s         
   221     -1.643605   6 C  s               205     -1.520995   5 C  dzz       
   248      1.520966   6 C  dzz             374     -1.517745   9 N  dxz       

 Vector   49  Occ=0.000000D+00  E= 6.654429D-02
              MO Center=  2.3D-05,  8.7D-06,  2.1D-01, r^2= 2.3D+01
   Bfn.  Coefficient  Atom+Function         Bfn.  Coefficient  Atom+Function  
  ----- ------------  ---------------      ----- ------------  ---------------
   393      8.125182  10 N  s               350      5.205473   9 N  s         
     6     -3.986942   1 C  s                49      3.497468   2 C  s         
    92      3.498417   3 C  s               178      2.823778   5 C  s         
   221      2.822858   6 C  s               436     -2.751966  11 O  s         
   482     -2.751755  12 O  s               264     -2.434458   7 C  s         

 Vector   50  Occ=0.000000D+00  E= 8.417738D-02
              MO Center=  3.6D-05,  5.2D-06,  3.5D-02, r^2= 2.7D+01
   Bfn.  Coefficient  Atom+Function         Bfn.  Coefficient  Atom+Function  
  ----- ------------  ---------------      ----- ------------  ---------------
   178      4.359786   5 C  s               221     -4.359586   6 C  s         
   264     -4.290834   7 C  s               307      4.290976   8 C  s         
   543      2.946817  15 H  s               552     -2.946757  16 H  s         
   436     -2.762604  11 O  s               482      2.761668  12 O  s         
    30      2.486829   1 C  dxz              49      2.469435   2 C  s         

 Vector   51  Occ=0.000000D+00  E= 8.430720D-02
              MO Center= -2.4D-06,  5.5D-06, -6.1D-01, r^2= 6.9D+00
   Bfn.  Coefficient  Atom+Function         Bfn.  Coefficient  Atom+Function  
  ----- ------------  ---------------      ----- ------------  ---------------
    11      0.257460   1 C  py                8      0.252405   1 C  py        
   161      0.250239   4 C  dyz             395     -0.246760  10 N  py        
   398     -0.229521  10 N  py              401     -0.221182  10 N  py        
   137      0.220004   4 C  py              140      0.216486   4 C  py        
   143      0.168738   4 C  py              447      0.164645  11 O  py        

 Vector   52  Occ=0.000000D+00  E= 8.829966D-02
              MO Center= -1.2D-05,  8.0D-06,  6.3D-01, r^2= 2.1D+01
   Bfn.  Coefficient  Atom+Function         Bfn.  Coefficient  Atom+Function  
  ----- ------------  ---------------      ----- ------------  ---------------
     6     12.198348   1 C  s               393    -11.476280  10 N  s         
   436      4.140354  11 O  s               482      4.140242  12 O  s         
   135      3.667320   4 C  s               350     -3.676058   9 N  s         
    28     -2.704705   1 C  dxx             178     -2.432570   5 C  s         
   221     -2.431447   6 C  s                31     -2.160826   1 C  dyy       

 Vector   53  Occ=0.000000D+00  E= 8.932989D-02
              MO Center=  8.9D-05,  6.6D-06, -2.6D-01, r^2= 2.6D+01
   Bfn.  Coefficient  Atom+Function         Bfn.  Coefficient  Atom+Function  
  ----- ------------  ---------------      ----- ------------  ---------------
   393      8.363086  10 N  s                 6      8.063735   1 C  s         
    49     -6.692580   2 C  s                92     -6.690973   3 C  s         
   135      6.670444   4 C  s               561     -6.473636  17 H  s         
   570     -6.473581  18 H  s               436     -4.855261  11 O  s         
   482     -4.855119  12 O  s               350      4.236653   9 N  s         

 Vector   54  Occ=0.000000D+00  E= 1.122277D-01
              MO Center=  1.7D-04,  6.9D-06, -9.5D-01, r^2= 3.1D+01
   Bfn.  Coefficient  Atom+Function         Bfn.  Coefficient  Atom+Function  
  ----- ------------  ---------------      ----- ------------  ---------------
    49     10.849896   2 C  s                92    -10.850322   3 C  s         
   178     -7.328377   5 C  s               221      7.330167   6 C  s         
   436      4.541475  11 O  s               482     -4.538801  12 O  s         
   543     -3.955938  15 H  s               552      3.955677  16 H  s         
   264     -3.823023   7 C  s               307      3.823040   8 C  s         

 Vector   55  Occ=0.000000D+00  E= 1.143630D-01
              MO Center= -2.7D-04,  1.9D-05,  4.8D-01, r^2= 3.0D+01
   Bfn.  Coefficient  Atom+Function         Bfn.  Coefficient  Atom+Function  
  ----- ------------  ---------------      ----- ------------  ---------------
   135      7.977044   4 C  s               561      6.794257  17 H  s         
   570      6.792921  18 H  s               393      6.503550  10 N  s         
    33     -5.534460   1 C  dzz             178     -4.856096   5 C  s         
   221     -4.854222   6 C  s               273     -4.607515   7 C  pz        
   316     -4.606723   8 C  pz              349     -4.415244   9 N  s         

 Vector   56  Occ=0.000000D+00  E= 1.230136D-01
              MO Center= -7.1D-05,  4.9D-04, -3.2D-02, r^2= 2.1D+01
   Bfn.  Coefficient  Atom+Function         Bfn.  Coefficient  Atom+Function  
  ----- ------------  ---------------      ----- ------------  ---------------
   393     15.584952  10 N  s               135    -13.572301   4 C  s         
   350      9.023045   9 N  s               436     -4.215941  11 O  s         
   482     -4.216350  12 O  s                 6      3.930197   1 C  s         
   543     -3.271984  15 H  s               552     -3.272504  16 H  s         
   561     -2.995492  17 H  s               570     -2.996216  18 H  s         

 Vector   57  Occ=0.000000D+00  E= 1.231623D-01
              MO Center=  6.5D-05, -4.9D-04,  1.8D+00, r^2= 1.8D+01
   Bfn.  Coefficient  Atom+Function         Bfn.  Coefficient  Atom+Function  
  ----- ------------  ---------------      ----- ------------  ---------------
   579      3.667277  19 H  s               588     -3.671136  20 H  s         
   597     -3.670883  21 H  s               606      3.667056  22 H  s         
    14      2.256913   1 C  py              272     -1.788965   7 C  py        
   315     -1.788811   8 C  py               72      1.717136   2 C  dxy       
   115     -1.717130   3 C  dxy             143     -1.538052   4 C  py        

 Vector   58  Occ=0.000000D+00  E= 1.310962D-01
              MO Center= -9.2D-05,  2.7D-06,  2.5D+00, r^2= 1.5D+01
   Bfn.  Coefficient  Atom+Function         Bfn.  Coefficient  Atom+Function  
  ----- ------------  ---------------      ----- ------------  ---------------
   579      8.608937  19 H  s               588     -8.608953  20 H  s         
   597      8.608974  21 H  s               606     -8.609108  22 H  s         
   272     -5.465277   7 C  py              315      5.465247   8 C  py        
   290      2.666308   7 C  dyz             333     -2.666422   8 C  dyz       
   287     -2.408380   7 C  dxy             330     -2.408329   8 C  dxy       

 Vector   59  Occ=0.000000D+00  E= 1.330049D-01
              MO Center=  6.7D-05, -2.7D-05, -1.7D+00, r^2= 2.1D+01
   Bfn.  Coefficient  Atom+Function         Bfn.  Coefficient  Atom+Function  
  ----- ------------  ---------------      ----- ------------  ---------------
    14      1.991876   1 C  py              161      1.772209   4 C  dyz       
    72      1.195405   2 C  dxy             115     -1.195330   3 C  dxy       
   419      1.042079  10 N  dyz             186     -0.988240   5 C  py        
   229     -0.988308   6 C  py               75     -0.882434   2 C  dyz       
   118     -0.882437   3 C  dyz             290      0.847407   7 C  dyz       

 Vector   60  Occ=0.000000D+00  E= 1.443547D-01
              MO Center=  1.9D-05,  3.3D-06,  1.0D-01, r^2= 2.5D+01
   Bfn.  Coefficient  Atom+Function         Bfn.  Coefficient  Atom+Function  
  ----- ------------  ---------------      ----- ------------  ---------------
   135     12.267098   4 C  s               178     -9.628583   5 C  s         
   221     -9.628747   6 C  s                49      9.116238   2 C  s         
    92      9.116411   3 C  s                 6     -8.230103   1 C  s         
   263      6.257272   7 C  s               306      6.257242   8 C  s         
   525     -5.530996  13 H  s               534     -5.530922  14 H  s         

 Vector   61  Occ=0.000000D+00  E= 1.484729D-01
              MO Center=  4.4D-07,  1.2D-06,  3.2D+00, r^2= 1.3D+01
   Bfn.  Coefficient  Atom+Function         Bfn.  Coefficient  Atom+Function  
  ----- ------------  ---------------      ----- ------------  ---------------
   579     -5.725847  19 H  s               588      5.726070  20 H  s         
   597      5.726043  21 H  s               606     -5.725898  22 H  s         
   272      5.308337   7 C  py              315      5.308346   8 C  py        
   287      1.410812   7 C  dxy             330     -1.410811   8 C  dxy       
   583      0.924545  19 H  px              592     -0.924573  20 H  px        

 Vector   62  Occ=0.000000D+00  E= 1.529946D-01
              MO Center=  1.3D-06, -3.9D-06, -3.2D-01, r^2= 2.9D+01
   Bfn.  Coefficient  Atom+Function         Bfn.  Coefficient  Atom+Function  
  ----- ------------  ---------------      ----- ------------  ---------------
   178      8.525221   5 C  s               221     -8.525261   6 C  s         
   561     -5.941285  17 H  s               570      5.940667  18 H  s         
    49     -5.874337   2 C  s                92      5.874666   3 C  s         
   579      4.843154  19 H  s               588      4.843220  20 H  s         
   597     -4.843075  21 H  s               606     -4.842923  22 H  s         

 Vector   63  Occ=0.000000D+00  E= 1.646263D-01
              MO Center= -8.0D-07,  5.2D-06,  1.4D+00, r^2= 1.7D+01
   Bfn.  Coefficient  Atom+Function         Bfn.  Coefficient  Atom+Function  
  ----- ------------  ---------------      ----- ------------  ---------------
   525     10.113377  13 H  s               534    -10.113342  14 H  s         
   543      8.989985  15 H  s               552     -8.989902  16 H  s         
   177     -6.329380   5 C  s               220      6.329330   6 C  s         
    48     -6.140888   2 C  s                91      6.140821   3 C  s         
   178      5.661345   5 C  s               221     -5.661385   6 C  s         

 Vector   64  Occ=0.000000D+00  E= 1.653015D-01
              MO Center= -4.4D-05, -3.1D-06, -2.3D+00, r^2= 1.8D+01
   Bfn.  Coefficient  Atom+Function         Bfn.  Coefficient  Atom+Function  
  ----- ------------  ---------------      ----- ------------  ---------------
   579      3.121103  19 H  s               588     -3.121027  20 H  s         
   597      3.121082  21 H  s               606     -3.121159  22 H  s         
   158      2.720808   4 C  dxy             290      2.204903   7 C  dyz       
   333     -2.204925   8 C  dyz             416     -2.073639  10 N  dxy       
   272     -1.769205   7 C  py              315      1.769251   8 C  py        

 Vector   65  Occ=0.000000D+00  E= 1.719683D-01
              MO Center= -3.0D-05, -2.7D-06, -5.3D-02, r^2= 2.2D+01
   Bfn.  Coefficient  Atom+Function         Bfn.  Coefficient  Atom+Function  
  ----- ------------  ---------------      ----- ------------  ---------------
   393      9.477166  10 N  s               135     -7.725599   4 C  s         
   561     -5.612743  17 H  s               570     -5.613446  18 H  s         
   436     -5.449063  11 O  s               482     -5.448844  12 O  s         
     6      4.967789   1 C  s               579      4.755962  19 H  s         
   588      4.756196  20 H  s               597      4.756662  21 H  s         

 Vector   66  Occ=0.000000D+00  E= 1.873412D-01
              MO Center=  5.3D-06, -2.9D-06, -1.5D+00, r^2= 2.7D+01
   Bfn.  Coefficient  Atom+Function         Bfn.  Coefficient  Atom+Function  
  ----- ------------  ---------------      ----- ------------  ---------------
   393      9.892864  10 N  s               178     -8.279651   5 C  s         
   221     -8.281125   6 C  s               135      7.022987   4 C  s         
     6      3.986981   1 C  s               263      3.765067   7 C  s         
   306      3.764559   8 C  s               264     -3.490817   7 C  s         
   307     -3.490971   8 C  s                49      2.980275   2 C  s         

 Vector   67  Occ=0.000000D+00  E= 1.934951D-01
              MO Center= -8.2D-05,  1.5D-06, -4.7D-01, r^2= 2.4D+01
   Bfn.  Coefficient  Atom+Function         Bfn.  Coefficient  Atom+Function  
  ----- ------------  ---------------      ----- ------------  ---------------
   543      9.202027  15 H  s               552     -9.202329  16 H  s         
    49      6.936373   2 C  s                92     -6.937042   3 C  s         
   561     -6.637048  17 H  s               570      6.636831  18 H  s         
   525      5.782411  13 H  s               534     -5.782233  14 H  s         
   177     -5.727718   5 C  s               220      5.727607   6 C  s         

 Vector   68  Occ=0.000000D+00  E= 1.977572D-01
              MO Center=  6.8D-05,  7.6D-06,  3.2D-01, r^2= 1.8D+01
   Bfn.  Coefficient  Atom+Function         Bfn.  Coefficient  Atom+Function  
  ----- ------------  ---------------      ----- ------------  ---------------
     6     22.160495   1 C  s               393     -9.598976  10 N  s         
    49     -8.740610   2 C  s                92     -8.741865   3 C  s         
   543     -4.693920  15 H  s               552     -4.691823  16 H  s         
   350     -4.201970   9 N  s               157      4.007927   4 C  dxx       
   561     -3.781554  17 H  s               570     -3.781520  18 H  s         

 Vector   69  Occ=0.000000D+00  E= 2.075608D-01
              MO Center=  1.4D-05,  1.4D-06,  1.5D+00, r^2= 2.1D+01
   Bfn.  Coefficient  Atom+Function         Bfn.  Coefficient  Atom+Function  
  ----- ------------  ---------------      ----- ------------  ---------------
    29      7.875643   1 C  dxy             290      4.862970   7 C  dyz       
   333     -4.862905   8 C  dyz              75     -4.715191   2 C  dyz       
   118      4.715186   3 C  dyz              72      2.675938   2 C  dxy       
   115      2.675945   3 C  dxy             186     -2.416591   5 C  py        
   229      2.416587   6 C  py              566     -2.326912  17 H  py        

 Vector   70  Occ=0.000000D+00  E= 2.102183D-01
              MO Center= -1.9D-04,  2.5D-06,  2.3D+00, r^2= 2.0D+01
   Bfn.  Coefficient  Atom+Function         Bfn.  Coefficient  Atom+Function  
  ----- ------------  ---------------      ----- ------------  ---------------
   543      9.619068  15 H  s               552     -9.619629  16 H  s         
   561      8.239066  17 H  s               570     -8.241969  18 H  s         
   178      8.117620   5 C  s               221     -8.116699   6 C  s         
    76     -5.640155   2 C  dzz             119      5.639865   3 C  dzz       
   273     -5.226465   7 C  pz              316      5.227659   8 C  pz        

 Vector   71  Occ=0.000000D+00  E= 2.130495D-01
              MO Center=  2.1D-04,  6.2D-06,  1.9D+00, r^2= 1.7D+01
   Bfn.  Coefficient  Atom+Function         Bfn.  Coefficient  Atom+Function  
  ----- ------------  ---------------      ----- ------------  ---------------
   393     14.037306  10 N  s               350     12.349852   9 N  s         
     6     -8.164793   1 C  s               561     -7.840296  17 H  s         
   570     -7.838739  18 H  s               349      7.014492   9 N  s         
   263      6.876033   7 C  s               306      6.875706   8 C  s         
   436     -5.976151  11 O  s               482     -5.975573  12 O  s         

 Vector   72  Occ=0.000000D+00  E= 2.135406D-01
              MO Center=  1.1D-05, -1.0D-05,  5.7D-01, r^2= 9.8D+00
   Bfn.  Coefficient  Atom+Function         Bfn.  Coefficient  Atom+Function  
  ----- ------------  ---------------      ----- ------------  ---------------
   579      3.052474  19 H  s               588     -3.053672  20 H  s         
   597     -3.053649  21 H  s               606      3.052441  22 H  s         
   272     -2.315246   7 C  py              315     -2.315193   8 C  py        
   290      2.041466   7 C  dyz             333      2.041559   8 C  dyz       
    32      1.401442   1 C  dyz             583     -0.731851  19 H  px        

 Vector   73  Occ=0.000000D+00  E= 2.258032D-01
              MO Center= -1.9D-05,  2.1D-06,  9.0D-01, r^2= 2.1D+01
   Bfn.  Coefficient  Atom+Function         Bfn.  Coefficient  Atom+Function  
  ----- ------------  ---------------      ----- ------------  ---------------
   543     10.643243  15 H  s               552    -10.642947  16 H  s         
    30      5.524185   1 C  dxz             264     -4.891420   7 C  s         
   307      4.891576   8 C  s               185     -4.191008   5 C  px        
   228     -4.190878   6 C  px              202      4.066170   5 C  dxz       
   245      4.066105   6 C  dxz             159      3.841066   4 C  dxz       

 Vector   74  Occ=0.000000D+00  E= 2.302135D-01
              MO Center=  4.8D-06,  4.3D-06,  1.3D+00, r^2= 1.6D+01
   Bfn.  Coefficient  Atom+Function         Bfn.  Coefficient  Atom+Function  
  ----- ------------  ---------------      ----- ------------  ---------------
   579      6.303796  19 H  s               588     -6.303865  20 H  s         
   597     -6.303816  21 H  s               606      6.303816  22 H  s         
   272     -4.891105   7 C  py              315     -4.891081   8 C  py        
    32      3.936141   1 C  dyz             290      3.801264   7 C  dyz       
   333      3.801273   8 C  dyz              75     -2.031371   2 C  dyz       

 Vector   75  Occ=0.000000D+00  E= 2.341690D-01
              MO Center=  5.7D-06,  2.5D-06,  1.2D+00, r^2= 2.0D+01
   Bfn.  Coefficient  Atom+Function         Bfn.  Coefficient  Atom+Function  
  ----- ------------  ---------------      ----- ------------  ---------------
   135     11.147281   4 C  s               178     -8.874360   5 C  s         
   221     -8.877772   6 C  s               561     -8.353411  17 H  s         
   570     -8.353697  18 H  s               393      7.954866  10 N  s         
   273      4.654041   7 C  pz              316      4.654019   8 C  pz        
   543      4.380904  15 H  s               552      4.380323  16 H  s         

 Vector   76  Occ=0.000000D+00  E= 2.413888D-01
              MO Center= -2.6D-04,  7.4D-06, -1.3D+00, r^2= 2.0D+01
   Bfn.  Coefficient  Atom+Function         Bfn.  Coefficient  Atom+Function  
  ----- ------------  ---------------      ----- ------------  ---------------
   135     17.801251   4 C  s                49     -9.691684   2 C  s         
    92     -9.702364   3 C  s               393     -8.139296  10 N  s         
   561      6.529085  17 H  s               570      6.528767  18 H  s         
   436     -6.220594  11 O  s               482     -6.217657  12 O  s         
   435      5.288833  11 O  s               481      5.288502  12 O  s         

 Vector   77  Occ=0.000000D+00  E= 2.431793D-01
              MO Center=  1.7D-04, -1.4D-06, -2.3D-01, r^2= 2.5D+01
   Bfn.  Coefficient  Atom+Function         Bfn.  Coefficient  Atom+Function  
  ----- ------------  ---------------      ----- ------------  ---------------
    49     13.205016   2 C  s                92    -13.200165   3 C  s         
   178     -9.666838   5 C  s               221      9.664888   6 C  s         
   264     -5.934902   7 C  s               307      5.934086   8 C  s         
   436     -5.706524  11 O  s               482      5.711633  12 O  s         
   570     -4.631578  18 H  s               525      4.606421  13 H  s         

 Vector   78  Occ=0.000000D+00  E= 2.451658D-01
              MO Center=  1.4D-04,  5.3D-07,  1.2D+00, r^2= 2.7D+01
   Bfn.  Coefficient  Atom+Function         Bfn.  Coefficient  Atom+Function  
  ----- ------------  ---------------      ----- ------------  ---------------
    49     12.530562   2 C  s                92    -12.528244   3 C  s         
   178    -12.387521   5 C  s               221     12.387082   6 C  s         
   525      7.858380  13 H  s               534     -7.858404  14 H  s         
   561     -7.076179  17 H  s               570      7.073947  18 H  s         
   264      6.372050   7 C  s               307     -6.373035   8 C  s         

 Vector   79  Occ=0.000000D+00  E= 2.461622D-01
              MO Center= -2.3D-05, -1.2D-05,  6.0D-01, r^2= 1.5D+01
   Bfn.  Coefficient  Atom+Function         Bfn.  Coefficient  Atom+Function  
  ----- ------------  ---------------      ----- ------------  ---------------
    14      3.382084   1 C  py               32     -2.524610   1 C  dyz       
   579     -2.468668  19 H  s               588      2.468454  20 H  s         
   597      2.468472  21 H  s               606     -2.468646  22 H  s         
    72      2.402084   2 C  dxy             115     -2.402054   3 C  dxy       
   290     -1.921618   7 C  dyz             333     -1.921643   8 C  dyz       

 Vector   80  Occ=0.000000D+00  E= 2.465284D-01
              MO Center= -5.2D-05,  4.9D-06,  7.8D-01, r^2= 1.4D+01
   Bfn.  Coefficient  Atom+Function         Bfn.  Coefficient  Atom+Function  
  ----- ------------  ---------------      ----- ------------  ---------------
     6      8.347592   1 C  s               349      7.815847   9 N  s         
   263      6.149773   7 C  s               306      6.149224   8 C  s         
    28     -5.421753   1 C  dxx             561     -4.374654  17 H  s         
   570     -4.375866  18 H  s               271      3.937501   7 C  px        
   314     -3.937107   8 C  px              162     -3.676649   4 C  dzz       

 Vector   81  Occ=0.000000D+00  E= 2.552775D-01
              MO Center=  1.8D-05,  1.4D-06,  1.3D+00, r^2= 1.9D+01
   Bfn.  Coefficient  Atom+Function         Bfn.  Coefficient  Atom+Function  
  ----- ------------  ---------------      ----- ------------  ---------------
   158      7.473494   4 C  dxy             186     -3.855061   5 C  py        
   229      3.855039   6 C  py              204      3.432441   5 C  dyz       
   247     -3.432448   6 C  dyz             272     -2.183467   7 C  py        
   315      2.183516   8 C  py              201      2.056821   5 C  dxy       
   244      2.056837   6 C  dxy              72     -1.690643   2 C  dxy       

 Vector   82  Occ=0.000000D+00  E= 2.665544D-01
              MO Center=  4.5D-05, -2.1D-06, -3.6D-01, r^2= 1.5D+01
   Bfn.  Coefficient  Atom+Function         Bfn.  Coefficient  Atom+Function  
  ----- ------------  ---------------      ----- ------------  ---------------
     6     20.082421   1 C  s               135    -13.039450   4 C  s         
    49    -12.811705   2 C  s                92    -12.819512   3 C  s         
   393    -10.791825  10 N  s               178      9.466341   5 C  s         
   221      9.475596   6 C  s               561      9.053926  17 H  s         
   570      9.053787  18 H  s               263     -8.119925   7 C  s         

 Vector   83  Occ=0.000000D+00  E= 2.718393D-01
              MO Center=  1.3D-04,  8.5D-07, -8.9D-01, r^2= 2.0D+01
   Bfn.  Coefficient  Atom+Function         Bfn.  Coefficient  Atom+Function  
  ----- ------------  ---------------      ----- ------------  ---------------
   178     22.289779   5 C  s               221    -22.285325   6 C  s         
    49    -19.038032   2 C  s                92     19.032331   3 C  s         
   543     14.452163  15 H  s               552    -14.455234  16 H  s         
   202      9.804795   5 C  dxz             245      9.806383   6 C  dxz       
   436     -8.500134  11 O  s               482      8.493997  12 O  s         

 Vector   84  Occ=0.000000D+00  E= 2.748603D-01
              MO Center= -8.6D-05, -3.1D-06,  1.8D+00, r^2= 1.8D+01
   Bfn.  Coefficient  Atom+Function         Bfn.  Coefficient  Atom+Function  
  ----- ------------  ---------------      ----- ------------  ---------------
   349     11.584812   9 N  s               561     -9.627172  17 H  s         
   570     -9.626857  18 H  s               263      8.398164   7 C  s         
   306      8.397864   8 C  s               273      7.342148   7 C  pz        
   316      7.341946   8 C  pz              271      5.746294   7 C  px        
   314     -5.745785   8 C  px              372      5.529722   9 N  dxx       

 Vector   85  Occ=0.000000D+00  E= 2.795941D-01
              MO Center=  4.4D-05, -3.2D-06, -4.7D-01, r^2= 2.1D+01
   Bfn.  Coefficient  Atom+Function         Bfn.  Coefficient  Atom+Function  
  ----- ------------  ---------------      ----- ------------  ---------------
   159     10.073776   4 C  dxz             525     -9.474629  13 H  s         
[...]
     Magnetic Dipole                               0.0000003957
     Total Oscillator Strength                     0.0000003970

     Occ.   42  a   ---  Virt.   45  a        0.96297
     Occ.   42  a   ---  Virt.   51  a       -0.25363
     Occ.   42  a   ---  Virt.   59  a        0.05910
  ----------------------------------------------------------------------------
  Root   2 singlet a              0.159797552 a.u.                4.3483 eV 
  ----------------------------------------------------------------------------
     Transition Moments    X -0.00000   Y  0.00000   Z -2.31449
     Transition Moments   XX -0.53638  XY  0.00001  XZ  0.00003
     Transition Moments   YY -0.32082  YZ -0.00009  ZZ  2.82713
     Dipole Oscillator Strength                    0.5706770628
     Electric Quadrupole                           0.0000000770
     Magnetic Dipole                               0.0000000000
     Total Oscillator Strength                     0.5706771399

     Occ.   39  a   ---  Virt.   45  a        0.18256
     Occ.   39  a   ---  Virt.   51  a       -0.09791
     Occ.   43  a   ---  Virt.   47  a        0.14065
     Occ.   44  a   ---  Virt.   45  a       -0.95322
  ----------------------------------------------------------------------------
  Root   3 singlet a              0.163400780 a.u.                4.4464 eV 
  ----------------------------------------------------------------------------
     Transition Moments    X  0.00000   Y -0.05753   Z -0.00021
     Transition Moments   XX -0.00004  XY  0.00004  XZ -0.00000
     Transition Moments   YY  0.00001  YZ  0.82354  ZZ  0.00010
     Dipole Oscillator Strength                    0.0003605993
     Electric Quadrupole                           0.0000000158
     Magnetic Dipole                               0.0000018379
     Total Oscillator Strength                     0.0003624529

     Occ.   41  a   ---  Virt.   45  a        0.96306
     Occ.   41  a   ---  Virt.   51  a       -0.24621
     Occ.   41  a   ---  Virt.   59  a        0.06148
  ----------------------------------------------------------------------------
  Root   4 singlet a              0.171453101 a.u.                4.6655 eV 
  ----------------------------------------------------------------------------
     Transition Moments    X  0.37813   Y  0.00000   Z -0.00013
     Transition Moments   XX -0.00010  XY -0.00000  XZ  0.95432
     Transition Moments   YY -0.00001  YZ -0.00000  ZZ  0.00043
     Dipole Oscillator Strength                    0.0163428549
     Electric Quadrupole                           0.0000000244
     Magnetic Dipole                               0.0000008048
     Total Oscillator Strength                     0.0163436842

     Occ.   39  a   ---  Virt.   47  a        0.07877
     Occ.   40  a   ---  Virt.   45  a       -0.09407
     Occ.   43  a   ---  Virt.   45  a       -0.47306
     Occ.   43  a   ---  Virt.   51  a       -0.19085
     Occ.   44  a   ---  Virt.   47  a       -0.84477
  ----------------------------------------------------------------------------
  Root   5 singlet a              0.198653418 a.u.                5.4056 eV 
  ----------------------------------------------------------------------------
     Transition Moments    X -0.00000   Y -0.48471   Z  0.00002
     Transition Moments   XX  0.00003  XY -0.00002  XZ -0.00004
     Transition Moments   YY  0.00002  YZ -2.28721  ZZ  0.00007
     Dipole Oscillator Strength                    0.0311154535
     Electric Quadrupole                           0.0000002184
     Magnetic Dipole                               0.0000004044
     Total Oscillator Strength                     0.0311160763

     Occ.   39  a   ---  Virt.   46  a       -0.12567
     Occ.   39  a   ---  Virt.   49  a        0.05344
     Occ.   44  a   ---  Virt.   46  a       -0.91966
     Occ.   44  a   ---  Virt.   49  a       -0.14267
     Occ.   44  a   ---  Virt.   52  a       -0.26800
     Occ.   44  a   ---  Virt.   56  a       -0.11014
     Occ.   44  a   ---  Virt.   60  a       -0.05354
     Occ.   44  a   ---  Virt.   68  a       -0.05852
     Occ.   44  a   ---  Virt.   71  a       -0.06651
  ----------------------------------------------------------------------------
  Root   6 singlet a              0.206167314 a.u.                5.6101 eV 
  ----------------------------------------------------------------------------
     Transition Moments    X -0.77917   Y -0.00000   Z -0.00013
     Transition Moments   XX -0.00005  XY -0.00001  XZ -0.72073
     Transition Moments   YY -0.00002  YZ -0.00000  ZZ  0.00023
     Dipole Oscillator Strength                    0.0834431321
     Electric Quadrupole                           0.0000000242
     Magnetic Dipole                               0.0000000010
     Total Oscillator Strength                     0.0834431573

     Occ.   39  a   ---  Virt.   47  a        0.16227
     Occ.   43  a   ---  Virt.   45  a       -0.85224
     Occ.   43  a   ---  Virt.   51  a        0.07985
     Occ.   44  a   ---  Virt.   47  a        0.46931
  ----------------------------------------------------------------------------
  Root   7 singlet a              0.229590855 a.u.                6.2475 eV 
  ----------------------------------------------------------------------------
     Transition Moments    X  0.00001   Y -0.00001   Z -0.00000
     Transition Moments   XX  0.00000  XY -2.81118  XZ  0.00004
     Transition Moments   YY -0.00001  YZ -0.00004  ZZ -0.00001
     Dipole Oscillator Strength                    0.0000000000
     Electric Quadrupole                           0.0000005093
     Magnetic Dipole                               0.0000003594
     Total Oscillator Strength                     0.0000008687

     Occ.   39  a   ---  Virt.   48  a       -0.10008
     Occ.   39  a   ---  Virt.   50  a        0.05426
     Occ.   43  a   ---  Virt.   46  a        0.11399
     Occ.   43  a   ---  Virt.   49  a        0.07171
     Occ.   44  a   ---  Virt.   48  a       -0.95069
     Occ.   44  a   ---  Virt.   50  a       -0.11032
     Occ.   44  a   ---  Virt.   54  a       -0.15436
     Occ.   44  a   ---  Virt.   62  a        0.06321
     Occ.   44  a   ---  Virt.   70  a        0.05348
     Occ.   44  a   ---  Virt.   73  a       -0.08519
     Occ.   44  a   ---  Virt.   78  a        0.05359
  ----------------------------------------------------------------------------
  Root   8 singlet a              0.234921615 a.u.                6.3925 eV 
  ----------------------------------------------------------------------------
     Transition Moments    X  0.00000   Y -0.05968   Z  0.00001
     Transition Moments   XX  0.00007  XY -0.00005  XZ  0.00002
     Transition Moments   YY -0.00000  YZ  0.32538  ZZ  0.00005
     Dipole Oscillator Strength                    0.0005578535
     Electric Quadrupole                           0.0000000073
     Magnetic Dipole                               0.0000000017
     Total Oscillator Strength                     0.0005578625

     Occ.   39  a   ---  Virt.   46  a        0.16013
     Occ.   39  a   ---  Virt.   53  a        0.08495
     Occ.   39  a   ---  Virt.   55  a       -0.05777
     Occ.   44  a   ---  Virt.   46  a        0.19492
     Occ.   44  a   ---  Virt.   49  a       -0.87607
     Occ.   44  a   ---  Virt.   52  a       -0.32370
     Occ.   44  a   ---  Virt.   53  a        0.06164
     Occ.   44  a   ---  Virt.   56  a        0.13012
     Occ.   44  a   ---  Virt.   65  a       -0.06108
     Occ.   44  a   ---  Virt.   68  a       -0.05570
     Occ.   44  a   ---  Virt.   80  a        0.09710

              Target root =      1
          Target symmetry = none
      Ground state energy =   -570.439284324491
        Excitation energy =      0.143763282774
     Excited state energy =   -570.295521041717

  stored tddft:energy   -570.29552104171694     

    8 smallest eigenvalue differences (eV) 
--------------------------------------------------------
  No. Spin  Occ  Vir  Irrep   E(Occ)    E(Vir)   E(Diff)
--------------------------------------------------------
    1    1   44   45 a        -0.294    -0.012     7.688
    2    1   44   46 a        -0.294     0.036     8.977
    3    1   44   47 a        -0.294     0.039     9.077
    4    1   43   45 a        -0.359    -0.012     9.445
    5    1   42   45 a        -0.362    -0.012     9.532
    6    1   44   48 a        -0.294     0.058     9.579
    7    1   44   49 a        -0.294     0.067     9.815
    8    1   41   45 a        -0.380    -0.012    10.030
--------------------------------------------------------

  Entering Davidson iterations
  Restricted triplet excited states

  Iter   NTrls   NConv    DeltaV     DeltaE      Time   
  ----  ------  ------  ---------  ---------  --------- 
    1      8       0     0.64E-01   0.10+100      670.3
    2     16       0     0.32E-01   0.18E-01      673.1
    3     24       0     0.13E+00   0.23E-01      679.1
    4     32       0     0.98E-01   0.26E-01      678.8
    5     40       0     0.73E-01   0.17E-01      679.0
    6     48       3     0.33E-01   0.91E-02      678.5
    7     53       3     0.21E-01   0.20E-02      608.1
    8     58       7     0.13E-01   0.76E-03      606.2
    9     59       6     0.30E-01   0.51E-02      493.7
   10     61       6     0.71E-02   0.56E-03      523.4
   11     63       6     0.19E-02   0.26E-04      524.9
   12     65       7     0.54E-03   0.16E-05      523.2
   13     66       7     0.14E-03   0.11E-06      501.5
   14     67       8     0.81E-04   0.82E-08      496.8
  ----  ------  ------  ---------  ---------  --------- 
  Convergence criterion met

  Ground state a        -570.439284324491 a.u.

  ----------------------------------------------------------------------------
  Root   1 triplet a              0.113555801 a.u.                3.0900 eV 
  ----------------------------------------------------------------------------
     Transition Moments                    Spin forbidden
     Oscillator Strength                   Spin forbidden

     Occ.   36  a   ---  Virt.   51  a        0.05037
     Occ.   39  a   ---  Virt.   45  a        0.24466
     Occ.   43  a   ---  Virt.   47  a        0.06950
     Occ.   44  a   ---  Virt.   45  a       -0.91684
     Occ.   44  a   ---  Virt.   51  a       -0.28204
  ----------------------------------------------------------------------------
  Root   2 triplet a              0.124861772 a.u.                3.3977 eV 
  ----------------------------------------------------------------------------
     Transition Moments                    Spin forbidden
     Oscillator Strength                   Spin forbidden

     Occ.   42  a   ---  Virt.   45  a        0.95319
     Occ.   42  a   ---  Virt.   51  a       -0.27685
     Occ.   42  a   ---  Virt.   59  a        0.08485
  ----------------------------------------------------------------------------
  Root   3 triplet a              0.130756170 a.u.                3.5581 eV 
  ----------------------------------------------------------------------------
     Transition Moments                    Spin forbidden
     Oscillator Strength                   Spin forbidden

     Occ.   40  a   ---  Virt.   45  a       -0.90628
     Occ.   40  a   ---  Virt.   51  a        0.29653
     Occ.   40  a   ---  Virt.   59  a       -0.10199
     Occ.   43  a   ---  Virt.   45  a        0.26111
  ----------------------------------------------------------------------------
  Root   4 triplet a              0.142966112 a.u.                3.8903 eV 
  ----------------------------------------------------------------------------
     Transition Moments                    Spin forbidden
     Oscillator Strength                   Spin forbidden

     Occ.   36  a   ---  Virt.   47  a        0.08304
     Occ.   39  a   ---  Virt.   47  a        0.16747
     Occ.   44  a   ---  Virt.   47  a       -0.97244
  ----------------------------------------------------------------------------
  Root   5 triplet a              0.144584633 a.u.                3.9343 eV 
  ----------------------------------------------------------------------------
     Transition Moments                    Spin forbidden
     Oscillator Strength                   Spin forbidden

     Occ.   41  a   ---  Virt.   45  a        0.95682
     Occ.   41  a   ---  Virt.   51  a       -0.26297
     Occ.   41  a   ---  Virt.   59  a        0.08109
  ----------------------------------------------------------------------------
  Root   6 triplet a              0.166382604 a.u.                4.5275 eV 
  ----------------------------------------------------------------------------
     Transition Moments                    Spin forbidden
     Oscillator Strength                   Spin forbidden

     Occ.   36  a   ---  Virt.   45  a       -0.07082
     Occ.   36  a   ---  Virt.   72  a       -0.08894
     Occ.   39  a   ---  Virt.   45  a        0.06287
     Occ.   39  a   ---  Virt.   51  a        0.06692
     Occ.   40  a   ---  Virt.   47  a        0.12134
     Occ.   43  a   ---  Virt.   47  a        0.94393
     Occ.   43  a   ---  Virt.   58  a       -0.06540
     Occ.   43  a   ---  Virt.   64  a       -0.05571
     Occ.   44  a   ---  Virt.   45  a        0.14869
     Occ.   44  a   ---  Virt.   51  a       -0.14105
     Occ.   44  a   ---  Virt.   72  a        0.05682
  ----------------------------------------------------------------------------
  Root   7 triplet a              0.169273829 a.u.                4.6062 eV 
  ----------------------------------------------------------------------------
     Transition Moments                    Spin forbidden
     Oscillator Strength                   Spin forbidden

     Occ.   36  a   ---  Virt.   47  a        0.08881
     Occ.   39  a   ---  Virt.   47  a       -0.09371
     Occ.   40  a   ---  Virt.   45  a       -0.24679
     Occ.   43  a   ---  Virt.   45  a       -0.91116
     Occ.   43  a   ---  Virt.   51  a       -0.27799
     Occ.   43  a   ---  Virt.   72  a       -0.06859
     Occ.   43  a   ---  Virt.   79  a       -0.06414
  ----------------------------------------------------------------------------
  Root   8 triplet a              0.189887761 a.u.                5.1671 eV 
  ----------------------------------------------------------------------------
     Transition Moments                    Spin forbidden
     Oscillator Strength                   Spin forbidden

     Occ.   36  a   ---  Virt.   45  a        0.21016
     Occ.   39  a   ---  Virt.   45  a       -0.46695
     Occ.   39  a   ---  Virt.   51  a        0.07179
     Occ.   43  a   ---  Virt.   47  a       -0.11011
     Occ.   44  a   ---  Virt.   45  a        0.11525
     Occ.   44  a   ---  Virt.   51  a       -0.82138
     Occ.   44  a   ---  Virt.   57  a       -0.06677
     Occ.   44  a   ---  Virt.   59  a        0.07019
     Occ.   44  a   ---  Virt.   72  a        0.07881
     Occ.   44  a   ---  Virt.   74  a       -0.07296

              Target root =      1
          Target symmetry = none
      Ground state energy =   -570.439284324491
        Excitation energy =      0.113555801113
     Excited state energy =   -570.325728523378

  stored tddft:energy   -570.32572852337830     

 Task  times  cpu:    15485.4s     wall:    18063.8s


                                NWChem Input Module
                                -------------------


 Summary of allocated global arrays
-----------------------------------
  No active global arrays


MA_summarize_allocated_blocks: starting scan ...
heap block 'gridpts', handle 127, address 0x13f27068:
	type of elements:		double precision
	number of elements:		5242751808
	address of client space:	0x13f270c0
	index for client space:		13674863
	total number of bytes:		41942014560
MA_summarize_allocated_blocks: scan completed: 1 heap block, 0 stack blocks
MA usage statistics:

	allocation statistics:
					      heap	     stack
					      ----	     -----
	current number of blocks	         1	         0
	maximum number of blocks	        18	        53
	current total bytes		41942014560	         0
	maximum total bytes		41944507568	  56774104
	maximum total K-bytes		  41944508	     56775
	maximum total M-bytes		     41945	        57


                                     CITATION
                                     --------
                Please cite the following reference when publishing
                           results obtained with NWChem:

          E. Apra, E. J. Bylaska, W. A. de Jong, N. Govind, K. Kowalski,
       T. P. Straatsma, M. Valiev, H. J. J. van Dam, Y. Alexeev, J. Anchell,
       V. Anisimov, F. W. Aquino, R. Atta-Fynn, J. Autschbach, N. P. Bauman,
     J. C. Becca, D. E. Bernholdt, K. Bhaskaran-Nair, S. Bogatko, P. Borowski,
         J. Boschen, J. Brabec, A. Bruner, E. Cauet, Y. Chen, G. N. Chuev,
      C. J. Cramer, J. Daily, M. J. O. Deegan, T. H. Dunning Jr., M. Dupuis,
   K. G. Dyall, G. I. Fann, S. A. Fischer, A. Fonari, H. Fruchtl, L. Gagliardi,
      J. Garza, N. Gawande, S. Ghosh, K. Glaesemann, A. W. Gotz, J. Hammond,
       V. Helms, E. D. Hermes, K. Hirao, S. Hirata, M. Jacquelin, L. Jensen,
   B. G. Johnson, H. Jonsson, R. A. Kendall, M. Klemm, R. Kobayashi, V. Konkov,
      S. Krishnamoorthy, M. Krishnan, Z. Lin, R. D. Lins, R. J. Littlefield,
      A. J. Logsdail, K. Lopata, W. Ma, A. V. Marenich, J. Martin del Campo,
   D. Mejia-Rodriguez, J. E. Moore, J. M. Mullin, T. Nakajima, D. R. Nascimento,
    J. A. Nichols, P. J. Nichols, J. Nieplocha, A. Otero-de-la-Roza, B. Palmer,
    A. Panyala, T. Pirojsirikul, B. Peng, R. Peverati, J. Pittner, L. Pollack,
   R. M. Richard, P. Sadayappan, G. C. Schatz, W. A. Shelton, D. W. Silverstein,
   D. M. A. Smith, T. A. Soares, D. Song, M. Swart, H. L. Taylor, G. S. Thomas,
            V. Tipparaju, D. G. Truhlar, K. Tsemekhman, T. Van Voorhis,
      A. Vazquez-Mayagoitia, P. Verma, O. Villa, A. Vishnu, K. D. Vogiatzis,
        D. Wang, J. H. Weare, M. J. Williamson, T. L. Windus, K. Wolinski,
        A. T. Wong, Q. Wu, C. Yang, Q. Yu, M. Zacharias, Z. Zhang, Y. Zhao,
                                and R. J. Harrison
                        "NWChem: Past, present, and future
                         J. Chem. Phys. 152, 184102 (2020)
                               doi:10.1063/5.0004997

                                      AUTHORS
                                      -------
  E. Apra, E. J. Bylaska, N. Govind, K. Kowalski, M. Valiev, D. Mejia-Rodriguez,
       A. Kunitsa, N. P. Bauman, A. Panyala, W. A. de Jong, T. P. Straatsma,
   H. J. J. van Dam, D. Wang, T. L. Windus, J. Hammond, J. Autschbach, A. Woods,
    K. Bhaskaran-Nair, J. Brabec, K. Lopata, S. A. Fischer, S. Krishnamoorthy,
     M. Jacquelin, W. Ma, M. Klemm, O. Villa, Y. Chen, V. Anisimov, F. Aquino,
     S. Hirata, M. T. Hackler, E. Hermes, L. Jensen, J. E. Moore, J. C. Becca,
      V. Konjkov, T. Risthaus, M. Malagoli, A. Marenich, A. Otero-de-la-Roza,
        J. Mullin, P. Nichols, R. Peverati, J. Pittner, Y. Zhao, P.-D. Fan,
        A. Fonari, M. J. Williamson, R. J. Harrison, J. R. Rehr, M. Dupuis,
     D. Silverstein, D. M. A. Smith, J. Nieplocha, V. Tipparaju, M. Krishnan,
     B. E. Van Kuiken, A. Vazquez-Mayagoitia, M. Swart, Q. Wu, T. Van Voorhis,
     A. A. Auer, M. Nooijen, L. D. Crosby, E. Brown, G. Cisneros, G. I. Fann,
   H. Fruchtl, J. Garza, K. Hirao, R. A. Kendall, J. A. Nichols, K. Tsemekhman,
    K. Wolinski, J. Anchell, D. E. Bernholdt, P. Borowski, T. Clark, D. Clerc,
   H. Dachsel, M. J. O. Deegan, K. Dyall, D. Elwood, E. Glendening, M. Gutowski,
   A. C. Hess, J. Jaffe, B. G. Johnson, J. Ju, R. Kobayashi, R. Kutteh, Z. Lin,
   R. Littlefield, X. Long, B. Meng, T. Nakajima, S. Niu, L. Pollack, M. Rosing,
   K. Glaesemann, G. Sandrone, M. Stave, H. Taylor, G. Thomas, J. H. van Lenthe,
                               A. T. Wong, Z. Zhang.

 Total times  cpu:    15485.4s     wall:    18064.2s
