 argument  1 = /home/aditisingh4812/nw_chem/nwchem-run/nwchem-run/tddft/closed/lcwpbe/geom-MOL/nitroaniline.nw
                                         
                                         


             Northwest Computational Chemistry Package (NWChem) 7.2.3
             --------------------------------------------------------


                    Environmental Molecular Sciences Laboratory
                       Pacific Northwest National Laboratory
                                Richland, WA 99352

                              Copyright (c) 1994-2022
                       Pacific Northwest National Laboratory
                            Battelle Memorial Institute

             NWChem is an open-source computational chemistry package
                        distributed under the terms of the
                      Educational Community License (ECL) 2.0
             A copy of the license is included with this distribution
                              in the LICENSE.TXT file

                                  ACKNOWLEDGMENT
                                  --------------

            This software and its documentation were developed at the
            EMSL at Pacific Northwest National Laboratory, a multiprogram
            national laboratory, operated for the U.S. Department of Energy
            by Battelle under Contract Number DE-AC05-76RL01830. Support
            for this work was provided by the Department of Energy Office
            of Biological and Environmental Research, Office of Basic
            Energy Sciences, and the Office of Advanced Scientific Computing.


           Job information
           ---------------

    hostname        = p20
    program         = /home/aditisingh4812/nw_chem/nwchem-7.2.3-release.revision-d690e065-srconly.2024-08-27/nwchem-7.2.3/bin/LINUX64/nwchem
    date            = Tue Apr  8 19:00:15 2025

    compiled        = Mon_Apr_07_18:51:54_2025
    source          = /home/aditisingh4812/nw_chem/nwchem-7.2.3-release.revision-d690e065-srconly.2024-08-27/nwchem-7.2.3
    nwchem branch   = 7.2.3
    nwchem revision = d690e065
    ga revision     = 5.8.0
    use scalapack   = F
    input           = /home/aditisingh4812/nw_chem/nwchem-run/nwchem-run/tddft/closed/lcwpbe/geom-MOL/nitroaniline.nw
    prefix          = nitroaniline.
    data base       = ./nitroaniline.db
    status          = startup
    nproc           =       48
    time left       =     -1s



           Memory information
           ------------------

    heap     = ********** doubles = 100000.0 Mbytes
    stack    = ********** doubles = 100000.0 Mbytes
    global   = ********** doubles = 100000.0 Mbytes (distinct from heap & stack)
    total    = ********** doubles = 300000.0 Mbytes
    verify   = yes
    hardfail = no 


           Directory information
           ---------------------

  0 permanent = .
  0 scratch   = .




                                NWChem Input Module
                                -------------------



 Scaling coordinates for geometry "geometry" by  1.889725989
 (inverse scale =  0.529177249)



                             Geometry "geometry" -> ""
                             -------------------------

 Output coordinates in angstroms (scale by  1.889725989 to convert to a.u.)

  No.       Tag          Charge          X              Y              Z
 ---- ---------------- ---------- -------------- -------------- --------------
    1 C                    6.0000     0.00000000     0.00000000     2.07260207
    2 C                    6.0000     1.20688600     0.00000000     1.35765907
    3 C                    6.0000    -1.20688600     0.00000000     1.35765907
    4 C                    6.0000     0.00000000     0.00000000    -0.70589393
    5 C                    6.0000     1.20815600     0.00000000    -0.02417693
    6 C                    6.0000    -1.20815600     0.00000000    -0.02417693
    7 N                    7.0000     0.00000000     0.00000000    -2.16064893
    8 N                    7.0000     0.00000000     0.00000000     3.43695807
    9 O                    8.0000     1.08453900     0.00000000    -2.72876293
   10 O                    8.0000    -1.08453900     0.00000000    -2.72876293
   11 H                    1.0000     2.14210500     0.00000000     1.89416007
   12 H                    1.0000    -2.14210500     0.00000000     1.89416007
   13 H                    1.0000     2.12746500     0.00000000    -0.58107793
   14 H                    1.0000    -2.12746500     0.00000000    -0.58107793
   15 H                    1.0000    -0.85796700     0.00000000     3.94892207
   16 H                    1.0000     0.85796700     0.00000000     3.94892207

      Atomic Mass 
      ----------- 

      C                 12.000000
      N                 14.003070
      O                 15.994910
      H                  1.007825


 Effective nuclear repulsion energy (a.u.)     497.5561751727

            Nuclear Dipole moment (a.u.) 
            ----------------------------
        X                 Y               Z
 ---------------- ---------------- ----------------
     0.0000000000     0.0000000000    -0.0000000000


            XYZ format geometry
            -------------------
    16
 geometry
 C                     0.00000000     0.00000000     2.07260207
 C                     1.20688600     0.00000000     1.35765907
 C                    -1.20688600     0.00000000     1.35765907
 C                     0.00000000     0.00000000    -0.70589393
 C                     1.20815600     0.00000000    -0.02417693
 C                    -1.20815600     0.00000000    -0.02417693
 N                     0.00000000     0.00000000    -2.16064893
 N                     0.00000000     0.00000000     3.43695807
 O                     1.08453900     0.00000000    -2.72876293
 O                    -1.08453900     0.00000000    -2.72876293
 H                     2.14210500     0.00000000     1.89416007
 H                    -2.14210500     0.00000000     1.89416007
 H                     2.12746500     0.00000000    -0.58107793
 H                    -2.12746500     0.00000000    -0.58107793
 H                    -0.85796700     0.00000000     3.94892207
 H                     0.85796700     0.00000000     3.94892207

 ==============================================================================
                                internuclear distances
 ------------------------------------------------------------------------------
       center one      |      center two      | atomic units |  angstroms
 ------------------------------------------------------------------------------
    2 C                |   1 C                |     2.65082  |     1.40275
    3 C                |   1 C                |     2.65082  |     1.40275
    5 C                |   2 C                |     2.61129  |     1.38184
    5 C                |   4 C                |     2.62147  |     1.38722
    6 C                |   3 C                |     2.61129  |     1.38184
    6 C                |   4 C                |     2.62147  |     1.38722
    7 N                |   4 C                |     2.74909  |     1.45476
    8 N                |   1 C                |     2.57826  |     1.36436
    9 O                |   7 N                |     2.31364  |     1.22433
   10 O                |   7 N                |     2.31364  |     1.22433
   11 H                |   2 C                |     2.03746  |     1.07818
   12 H                |   3 C                |     2.03746  |     1.07818
   13 H                |   5 C                |     2.03114  |     1.07483
   14 H                |   6 C                |     2.03114  |     1.07483
   15 H                |   8 N                |     1.88804  |     0.99911
   16 H                |   8 N                |     1.88804  |     0.99911
 ------------------------------------------------------------------------------
                         number of included internuclear distances:         16
 ==============================================================================



 ==============================================================================
                                 internuclear angles
 ------------------------------------------------------------------------------
        center 1       |       center 2       |       center 3       |  degrees
 ------------------------------------------------------------------------------
    2 C                |   1 C                |   3 C                |   118.72
    2 C                |   1 C                |   8 N                |   120.64
    3 C                |   1 C                |   8 N                |   120.64
    1 C                |   2 C                |   5 C                |   120.69
    1 C                |   2 C                |  11 H                |   119.52
    5 C                |   2 C                |  11 H                |   119.79
    1 C                |   3 C                |   6 C                |   120.69
    1 C                |   3 C                |  12 H                |   119.52
    6 C                |   3 C                |  12 H                |   119.79
    5 C                |   4 C                |   6 C                |   121.13
    5 C                |   4 C                |   7 N                |   119.43
    6 C                |   4 C                |   7 N                |   119.43
    2 C                |   5 C                |   4 C                |   119.38
    2 C                |   5 C                |  13 H                |   121.26
    4 C                |   5 C                |  13 H                |   119.36
    3 C                |   6 C                |   4 C                |   119.38
    3 C                |   6 C                |  14 H                |   121.26
    4 C                |   6 C                |  14 H                |   119.36
    4 C                |   7 N                |   9 O                |   117.65
    4 C                |   7 N                |  10 O                |   117.65
    9 O                |   7 N                |  10 O                |   124.71
    1 C                |   8 N                |  15 H                |   120.83
    1 C                |   8 N                |  16 H                |   120.83
   15 H                |   8 N                |  16 H                |   118.35
 ------------------------------------------------------------------------------
                            number of included internuclear angles:         24
 ==============================================================================





 Summary of "ao basis" -> "" (cartesian)
 ------------------------------------------------------------------------------
       Tag                 Description            Shells   Functions and Types
 ---------------- ------------------------------  ------  ---------------------
 *                         def2-TZVPD                 on all atoms 


  pbe96 is a nonlocal functional; adding pw91lda local functional. 

                                 NWChem DFT Module
                                 -----------------


                      Basis "ao basis" -> "ao basis" (cartesian)
                      -----
  C (Carbon)
  ----------
            Exponent  Coefficients 
       -------------- ---------------------------------------------------------
  1 S  1.35753497E+04  0.000222
  1 S  2.03523337E+03  0.001723
  1 S  4.63225624E+02  0.008926
  1 S  1.31200196E+02  0.035728
  1 S  4.28530159E+01  0.110763
  1 S  1.55841858E+01  0.242956

  2 S  6.20671385E+00  0.414403
  2 S  2.57648965E+00  0.237450

  3 S  5.76963394E-01  1.000000

  4 S  2.29728314E-01  1.000000

  5 S  9.51644400E-02  1.000000

  6 S  4.84754014E-02  1.000000

  7 P  3.46972322E+01  0.005333
  7 P  7.95826228E+00  0.035864
  7 P  2.37808269E+00  0.142159
  7 P  8.14332082E-01  0.342705

  8 P  2.88875473E-01  1.000000

  9 P  1.00568237E-01  1.000000

 10 D  1.09700000E+00  1.000000

 11 D  3.18000000E-01  1.000000

 12 D  9.09853364E-02  1.000000

 13 F  7.61000000E-01  1.000000

  N (Nitrogen)
  ------------
            Exponent  Coefficients 
       -------------- ---------------------------------------------------------
  1 S  1.97308006E+04  0.000219
  1 S  2.95789587E+03  0.001696
  1 S  6.73221336E+02  0.008795
  1 S  1.90682495E+02  0.035359
  1 S  6.22954419E+01  0.110958
  1 S  2.26541612E+01  0.249830

  2 S  8.97914774E+00  0.406239
  2 S  3.68630024E+00  0.243382

  3 S  8.46600768E-01  1.000000

  4 S  3.36471338E-01  1.000000

  5 S  1.36476537E-01  1.000000

  6 S  6.84416058E-02  1.000000

  7 P  4.92003805E+01  0.005555
  7 P  1.13467905E+01  0.038052
  7 P  3.42739724E+00  0.149537
  7 P  1.17855251E+00  0.349493

  8 P  4.16422050E-01  1.000000

  9 P  1.42608260E-01  1.000000

 10 D  1.65400000E+00  1.000000

 11 D  4.69000000E-01  1.000000

 12 D  1.28296421E-01  1.000000

 13 F  1.09300000E+00  1.000000

  O (Oxygen)
  ----------
            Exponent  Coefficients 
       -------------- ---------------------------------------------------------
  1 S  2.70323826E+04  0.000217
  1 S  4.05238714E+03  0.001684
  1 S  9.22327227E+02  0.008740
  1 S  2.61240710E+02  0.035240
  1 S  8.53546414E+01  0.111535
  1 S  3.10350352E+01  0.255890

  2 S  1.22608607E+01  0.397687
  2 S  4.99870760E+00  0.246278

  3 S  1.17031082E+00  1.000000

  4 S  4.64747410E-01  1.000000

  5 S  1.85045364E-01  1.000000

  6 S  7.02880263E-02  1.000000

  7 P  6.32749548E+01  0.006069
  7 P  1.46270494E+01  0.041913
  7 P  4.45012235E+00  0.161538
  7 P  1.52757996E+00  0.357070

  8 P  5.29351179E-01  1.000000

  9 P  1.74784213E-01  1.000000

 10 P  5.11127457E-02  1.000000

 11 D  2.31400000E+00  1.000000

 12 D  6.45000000E-01  1.000000

 13 D  1.46964774E-01  1.000000

 14 F  1.42800000E+00  1.000000

  H (Hydrogen)
  ------------
            Exponent  Coefficients 
       -------------- ---------------------------------------------------------
  1 S  3.40613410E+01  0.006025
  1 S  5.12357460E+00  0.045021
  1 S  1.16466260E+00  0.201897

  2 S  3.27230410E-01  1.000000

  3 S  1.03072410E-01  1.000000

  4 P  8.00000000E-01  1.000000

  5 P  9.57741296E-02  1.000000



 Summary of "ao basis" -> "ao basis" (cartesian)
 ------------------------------------------------------------------------------
       Tag                 Description            Shells   Functions and Types
 ---------------- ------------------------------  ------  ---------------------
 C                         def2-TZVPD               13       43   6s3p3d1f
 N                         def2-TZVPD               13       43   6s3p3d1f
 O                         def2-TZVPD               14       46   6s4p3d1f
 H                         def2-TZVPD                5        9   3s2p




 Summary of "ao basis" -> "ao basis" (cartesian)
 ------------------------------------------------------------------------------
       Tag                 Description            Shells   Functions and Types
 ---------------- ------------------------------  ------  ---------------------
 C                         def2-TZVPD               13       43   6s3p3d1f
 N                         def2-TZVPD               13       43   6s3p3d1f
 O                         def2-TZVPD               14       46   6s4p3d1f
 H                         def2-TZVPD                5        9   3s2p


  int_init: cando_txs set to always be  F
  Caching 1-el integrals 

            General Information
            -------------------
          SCF calculation type: DFT
          Wavefunction type:  closed shell.
          No. of atoms     :    16
          No. of electrons :    72
           Alpha electrons :    36
            Beta electrons :    36
          Charge           :     0
          Spin multiplicity:     1
          Use of symmetry is: off; symmetry adaption is: off
          Maximum number of iterations:  50
          AO basis - number of functions:   490
                     number of shells:   162
          Convergence on energy requested:  1.00D-06
          Convergence on density requested:  1.00D-05
          Convergence on gradient requested:  5.00D-04

              XC Information
              --------------
                     Hartree-Fock (Exact) Exchange  1.000          
                     LC-wPBE(h)Exchange Functional  1.000          
            Perdew 1991 LDA Correlation Functional  1.000 local    
           PerdewBurkeErnz. Correlation Functional  1.000 non-local

           Range-Separation Parameters        
           ---------------------------
           Alpha           :  0.00
           Beta            :  1.00
           Gamma           :  0.27
           Short-Range HF  :     F

             Grid Information
             ----------------
          Grid used for XC integration:  xfine     
          Radial quadrature: Mura-Knowles        
          Angular quadrature: Lebedev. 
          Tag              B.-S. Rad. Rad. Pts. Rad. Cut. Ang. Pts.
          ---              ---------- --------- --------- ---------
          C                   0.70      100          15.0      1454
          N                   0.65      100          17.0      1454
          O                   0.60      100          16.0      1454
          H                   0.35      100          19.0      1202
          Grid pruning is: on 
          Number of quadrature shells:  1600
          Spatial weights used:  Erf1

          Convergence Information
          -----------------------
          Convergence aids based upon iterative change in 
          total energy or number of iterations. 
          Levelshifting, if invoked, occurs when the 
          HOMO/LUMO gap drops below (HL_TOL):  1.00D-02
          DIIS, if invoked, will attempt to extrapolate 
          using up to (NFOCK): 10 stored Fock matrices.

                    Damping( 0%)  Levelshifting(0.5)       DIIS
                  --------------- ------------------- ---------------
          dE  on:    start            ASAP                start   
          dE off:    2 iters         50 iters            50 iters 


      Screening Tolerance Information
      -------------------------------
          Density screening/tol_rho:  1.00D-10
          AO Gaussian exp screening on grid/accAOfunc:  14
          CD Gaussian exp screening on grid/accCDfunc:  20
          XC Gaussian exp screening on grid/accXCfunc:  20
          Schwarz screening/accCoul:  1.00D-08

  
  CAM type calculations without CDFIT are
  only available with the direct option.
  Forcing Direct SCF
  

 WARNING : Found    13 linear dependencies 
 S eigenvalue threshold:     1.00000E-05
 Smallest S eigenvalue :     1.10976E-08
 Largest  S eigenvalue :     8.99889E-06


 !! The overlap matrix has  13 vectors deemed linearly dependent with
    eigenvalues:
 1.11D-08 1.95D-07 7.83D-07 9.84D-07 1.10D-06 1.30D-06 2.52D-06 4.46D-06
 5.19D-06 5.81D-06 6.67D-06 8.48D-06 9.00D-06


      Superposition of Atomic Density Guess
      -------------------------------------

 Sum of atomic energies:        -487.21881087

      Non-variational initial energy
      ------------------------------

 Total energy =    -493.644800
 1-e energy   =   -1648.893801
 2-e energy   =     657.692825
 HOMO         =      -0.241397
 LUMO         =      -0.072583

  WARNING: movecs_in_org=atomic not equal to movecs_in=./nitroaniline.movecs
   Time after variat. SCF:     22.1
   Time prior to 1st pass:     22.1

 Grid_pts file          = ./nitroaniline.gridpts.00
 Record size in doubles =  12289        No. of grid_pts per rec  =   3070
 Max. records in memory =     19        Max. recs in file   =  21109390

 Grid integrated density:      71.893322653234
 Requested integration accuracy:   0.10E-07

           Memory utilization after 1st SCF pass: 
           Heap Space remaining (MW):     7864.20          7864202490
          Stack Space remaining (MW):    13107.20         13107197148

   convergence    iter        energy       DeltaE   RMS-Dens  Diis-err    time
 ---------------- ----- ----------------- --------- --------- ---------  ------
 d= 0,ls=0.0,diis     1   -488.9721139688 -9.87D+02  1.79D+02  5.08D+03    76.0
 Grid integrated density:      72.000009308078
 Requested integration accuracy:   0.10E-07
 d= 0,ls=0.5,diis     2   -470.5605490448  1.84D+01  1.70D+02  1.79D+02   139.2
 Grid integrated density:      72.000011944660
 Requested integration accuracy:   0.10E-07
 d= 0,ls=0.5,diis     3   -483.5175607909 -1.30D+01  1.50D+01  6.47D+01   199.1
 Grid integrated density:      72.000015428239
 Requested integration accuracy:   0.10E-07
 d= 0,ls=0.5,diis     4   -482.4707940131  1.05D+00  5.87D+01  4.31D+01   257.7
 d= 0,ls=0.5,diis     5   -490.1842904890 -7.71D+00  1.11D-01  9.60D+00   312.3
 d= 0,ls=0.5,diis     6   -491.1672630455 -9.83D-01  1.89D-02  3.86D+00   364.6
 d= 0,ls=0.5,diis     7   -491.5586626643 -3.91D-01  6.54D-03  1.32D+00   417.1
 d= 0,ls=0.5,diis     8   -491.7631266589 -2.04D-01  2.12D-03  2.69D-01   469.5
 d= 0,ls=0.5,diis     9   -491.8363568892 -7.32D-02  7.07D-04  5.48D-02   521.4
  Resetting Diis
 d= 0,ls=0.5,diis    10   -491.8613229728 -2.50D-02  3.62D-04  2.76D-02   575.2
 d= 0,ls=0.5,diis    11   -491.8728415064 -1.15D-02  8.26D-04  1.76D-02   626.7
 d= 0,ls=0.5,diis    12   -491.8784462523 -5.60D-03  2.73D-04  7.10D-03   681.9
 d= 0,ls=0.5,diis    13   -491.8814814547 -3.04D-03  2.54D-04  3.88D-03   734.0
 d= 0,ls=0.5,diis    14   -491.8840664832 -2.59D-03  1.33D-04  1.96D-03   786.3
 d= 0,ls=0.5,diis    15   -491.8852953745 -1.23D-03  8.94D-05  7.94D-04   840.0
 d= 0,ls=0.5,diis    16   -491.8859012563 -6.06D-04  5.57D-05  3.82D-04   894.9
 d= 0,ls=0.5,diis    17   -491.8861744677 -2.73D-04  3.50D-05  1.89D-04   947.9
 d= 0,ls=0.5,diis    18   -491.8862910308 -1.17D-04  2.20D-05  9.09D-05  1001.4
 d= 0,ls=0.5,diis    19   -491.8863387351 -4.77D-05  1.38D-05  4.19D-05  1056.6
 d= 0,ls=0.5,diis    20   -491.8863579562 -1.92D-05  8.87D-06  1.64D-05  1109.1
 d= 0,ls=0.5,diis    21   -491.8863653472 -7.39D-06  5.52D-06  7.61D-06  1160.9
 d= 0,ls=0.5,diis    22   -491.8863682735 -2.93D-06  3.27D-06  3.34D-06  1216.6
 d= 0,ls=0.5,diis    23   -491.8863694485 -1.18D-06  1.99D-06  1.33D-06  1269.7
 d= 0,ls=0.5,diis    24   -491.8863699132 -4.65D-07  1.23D-06  5.17D-07  1324.6


         Total DFT energy =     -491.886370093667
      One electron energy =    -1654.985676428465
           Coulomb energy =      730.906138979666
    Exchange-Corr. energy =      -65.363007817565
 Nuclear repulsion energy =      497.556175172696

 Numeric. integr. density =       72.000000161903

     Total iterative time =   1356.0s



                       DFT Final Molecular Orbital Analysis
                       ------------------------------------

 Vector    1  Occ=2.000000D+00  E=-1.892678D+01
              MO Center= -8.5D-01, -8.1D-12, -2.7D+00, r^2= 4.6D-01
   Bfn.  Coefficient  Atom+Function         Bfn.  Coefficient  Atom+Function  
  ----- ------------  ---------------      ----- ------------  ---------------
   392      0.598411  10 O  s               391      0.412245  10 O  s         
   346     -0.206341   9 O  s               345     -0.142142   9 O  s         
   394     -0.099354  10 O  s               393      0.089019  10 O  s         
   348      0.034965   9 O  s               347     -0.031108   9 O  s         

 Vector    2  Occ=2.000000D+00  E=-1.892676D+01
              MO Center=  8.5D-01, -4.6D-11, -2.7D+00, r^2= 4.6D-01
   Bfn.  Coefficient  Atom+Function         Bfn.  Coefficient  Atom+Function  
  ----- ------------  ---------------      ----- ------------  ---------------
   346      0.598406   9 O  s               345      0.412246   9 O  s         
   392      0.206326  10 O  s               391      0.142146  10 O  s         
   348     -0.098800   9 O  s               347      0.088696   9 O  s         
   394     -0.033359  10 O  s               393      0.030169  10 O  s         

 Vector    3  Occ=2.000000D+00  E=-1.436793D+01
              MO Center= -3.9D-09,  1.7D-13, -2.2D+00, r^2= 2.0D-02
   Bfn.  Coefficient  Atom+Function         Bfn.  Coefficient  Atom+Function  
  ----- ------------  ---------------      ----- ------------  ---------------
   260      0.619409   7 N  s               259      0.449532   7 N  s         
   262     -0.106058   7 N  s               261      0.097762   7 N  s         

 Vector    4  Occ=2.000000D+00  E=-1.417676D+01
              MO Center=  1.2D-09, -4.6D-13,  3.4D+00, r^2= 2.0D-02
   Bfn.  Coefficient  Atom+Function         Bfn.  Coefficient  Atom+Function  
  ----- ------------  ---------------      ----- ------------  ---------------
   303      0.618989   8 N  s               302      0.449483   8 N  s         
   305     -0.110116   8 N  s               304      0.100773   8 N  s         

 Vector    5  Occ=2.000000D+00  E=-1.011709D+01
              MO Center= -1.1D-08, -1.7D-12,  2.1D+00, r^2= 2.8D-02
   Bfn.  Coefficient  Atom+Function         Bfn.  Coefficient  Atom+Function  
  ----- ------------  ---------------      ----- ------------  ---------------
     2      0.599535   1 C  s                 1      0.468113   1 C  s         
     3      0.101945   1 C  s                 4     -0.099469   1 C  s         

 Vector    6  Occ=2.000000D+00  E=-1.009130D+01
              MO Center=  3.2D-08,  4.9D-14, -7.1D-01, r^2= 2.8D-02
   Bfn.  Coefficient  Atom+Function         Bfn.  Coefficient  Atom+Function  
  ----- ------------  ---------------      ----- ------------  ---------------
   131      0.599354   4 C  s               130      0.468035   4 C  s         
   132      0.102566   4 C  s               133     -0.100816   4 C  s         

 Vector    7  Occ=2.000000D+00  E=-1.006984D+01
              MO Center=  4.1D-01, -9.8D-13, -2.3D-02, r^2= 1.3D+00
   Bfn.  Coefficient  Atom+Function         Bfn.  Coefficient  Atom+Function  
  ----- ------------  ---------------      ----- ------------  ---------------
   174      0.489671   5 C  s               173      0.382365   5 C  s         
   217     -0.345340   6 C  s               216     -0.269661   6 C  s         
   175      0.083975   5 C  s               176     -0.082974   5 C  s         
   218     -0.059197   6 C  s               219      0.058310   6 C  s         

 Vector    8  Occ=2.000000D+00  E=-1.006983D+01
              MO Center= -4.1D-01, -6.0D-13, -2.3D-02, r^2= 1.3D+00
   Bfn.  Coefficient  Atom+Function         Bfn.  Coefficient  Atom+Function  
  ----- ------------  ---------------      ----- ------------  ---------------
   217      0.489646   6 C  s               216      0.382350   6 C  s         
   174      0.345305   5 C  s               173      0.269640   5 C  s         
   218      0.084046   6 C  s               219     -0.083550   6 C  s         
   175      0.059297   5 C  s               176     -0.059127   5 C  s         

 Vector    9  Occ=2.000000D+00  E=-1.006108D+01
              MO Center= -1.2D+00, -1.3D-12,  1.4D+00, r^2= 3.0D-02
   Bfn.  Coefficient  Atom+Function         Bfn.  Coefficient  Atom+Function  
  ----- ------------  ---------------      ----- ------------  ---------------
    88      0.599131   3 C  s                87      0.467871   3 C  s         
    89      0.102869   3 C  s                90     -0.101482   3 C  s         

 Vector   10  Occ=2.000000D+00  E=-1.006107D+01
              MO Center=  1.2D+00, -3.1D-13,  1.4D+00, r^2= 3.0D-02
   Bfn.  Coefficient  Atom+Function         Bfn.  Coefficient  Atom+Function  
  ----- ------------  ---------------      ----- ------------  ---------------
    45      0.599132   2 C  s                44      0.467872   2 C  s         
    46      0.102870   2 C  s                47     -0.101491   2 C  s         

 Vector   11  Occ=2.000000D+00  E=-1.290173D+00
              MO Center= -3.4D-05, -1.3D-10, -2.4D+00, r^2= 8.3D-01
   Bfn.  Coefficient  Atom+Function         Bfn.  Coefficient  Atom+Function  
  ----- ------------  ---------------      ----- ------------  ---------------
   262      0.309157   7 N  s               261      0.246904   7 N  s         
   348      0.190686   9 O  s               394      0.190701  10 O  s         
   260     -0.172629   7 N  s               347      0.160817   9 O  s         
   393      0.160829  10 O  s               346     -0.111378   9 O  s         
   392     -0.111386  10 O  s               351     -0.085854   9 O  px        

 Vector   12  Occ=2.000000D+00  E=-1.118567D+00
              MO Center=  2.6D-05,  1.3D-10, -2.5D+00, r^2= 1.1D+00
   Bfn.  Coefficient  Atom+Function         Bfn.  Coefficient  Atom+Function  
  ----- ------------  ---------------      ----- ------------  ---------------
   348      0.283518   9 O  s               394     -0.283513  10 O  s         
   265      0.240436   7 N  px              347      0.216544   9 O  s         
   393     -0.216540  10 O  s               346     -0.149976   9 O  s         
   392      0.149973  10 O  s               349      0.142591   9 O  s         
   395     -0.142588  10 O  s               268      0.108834   7 N  px        

 Vector   13  Occ=2.000000D+00  E=-1.034522D+00
              MO Center= -4.1D-06, -4.8D-10,  2.9D+00, r^2= 1.4D+00
   Bfn.  Coefficient  Atom+Function         Bfn.  Coefficient  Atom+Function  
  ----- ------------  ---------------      ----- ------------  ---------------
   305      0.335122   8 N  s               304      0.246266   8 N  s         
     3      0.189305   1 C  s               303     -0.177722   8 N  s         
     4      0.160682   1 C  s                 2     -0.117362   1 C  s         
   302     -0.081510   8 N  s                46      0.069566   2 C  s         
    89      0.069567   3 C  s                 9      0.066059   1 C  pz        

 Vector   14  Occ=2.000000D+00  E=-9.638459D-01
              MO Center= -9.5D-06, -6.6D-10,  2.9D-01, r^2= 3.4D+00
   Bfn.  Coefficient  Atom+Function         Bfn.  Coefficient  Atom+Function  
  ----- ------------  ---------------      ----- ------------  ---------------
   132      0.194899   4 C  s               133      0.195184   4 C  s         
   305     -0.151564   8 N  s               175      0.147127   5 C  s         
   218      0.147129   6 C  s               131     -0.123450   4 C  s         
   176      0.115185   5 C  s               219      0.115186   6 C  s         
   304     -0.105747   8 N  s               267      0.100913   7 N  pz        

 Vector   15  Occ=2.000000D+00  E=-8.782524D-01
              MO Center= -1.9D-05, -4.0D-10,  1.8D-01, r^2= 5.0D+00
   Bfn.  Coefficient  Atom+Function         Bfn.  Coefficient  Atom+Function  
  ----- ------------  ---------------      ----- ------------  ---------------
   133      0.197242   4 C  s               267      0.176610   7 N  pz        
   305      0.152142   8 N  s               132      0.149021   4 C  s         
     4     -0.139336   1 C  s                46     -0.131724   2 C  s         
    89     -0.131729   3 C  s               262      0.127879   7 N  s         
     3     -0.125549   1 C  s                47     -0.101178   2 C  s         

 Vector   16  Occ=2.000000D+00  E=-8.599621D-01
              MO Center=  2.2D-05, -1.0D-10,  7.1D-01, r^2= 2.9D+00
   Bfn.  Coefficient  Atom+Function         Bfn.  Coefficient  Atom+Function  
  ----- ------------  ---------------      ----- ------------  ---------------
    46      0.182773   2 C  s                89     -0.182770   3 C  s         
   175      0.180964   5 C  s               218     -0.180960   6 C  s         
    47      0.169500   2 C  s                90     -0.169499   3 C  s         
   176      0.164531   5 C  s               219     -0.164525   6 C  s         
    45     -0.111804   2 C  s                88      0.111802   3 C  s         

 Vector   17  Occ=2.000000D+00  E=-7.779824D-01
              MO Center= -2.8D-05, -2.3D-10,  4.1D-01, r^2= 6.0D+00
   Bfn.  Coefficient  Atom+Function         Bfn.  Coefficient  Atom+Function  
  ----- ------------  ---------------      ----- ------------  ---------------
     4      0.241746   1 C  s               262      0.188642   7 N  s         
     3      0.164925   1 C  s               138     -0.150280   4 C  pz        
   267      0.145743   7 N  pz              175     -0.136373   5 C  s         
   218     -0.136381   6 C  s               310     -0.126406   8 N  pz        
   261      0.121021   7 N  s               305     -0.117172   8 N  s         

 Vector   18  Occ=2.000000D+00  E=-7.339779D-01
              MO Center=  9.6D-06, -1.3D-10,  1.0D+00, r^2= 4.1D+00
   Bfn.  Coefficient  Atom+Function         Bfn.  Coefficient  Atom+Function  
  ----- ------------  ---------------      ----- ------------  ---------------
   176     -0.183063   5 C  s               219      0.183059   6 C  s         
     7      0.171453   1 C  px               47      0.161150   2 C  s         
    90     -0.161154   3 C  s               136     -0.148591   4 C  px        
   175     -0.148931   5 C  s               218      0.148926   6 C  s         
    46      0.128679   2 C  s                89     -0.128678   3 C  s         

 Vector   19  Occ=2.000000D+00  E=-6.871337D-01
              MO Center= -2.5D-05, -5.3D-10,  4.4D-01, r^2= 6.0D+00
   Bfn.  Coefficient  Atom+Function         Bfn.  Coefficient  Atom+Function  
  ----- ------------  ---------------      ----- ------------  ---------------
   262     -0.176219   7 N  s                 4      0.163679   1 C  s         
   133      0.154704   4 C  s               132      0.138492   4 C  s         
    47     -0.137413   2 C  s                90     -0.137411   3 C  s         
   310     -0.136194   8 N  pz                3      0.118550   1 C  s         
   179     -0.113269   5 C  px              222      0.113269   6 C  px        

 Vector   20  Occ=2.000000D+00  E=-6.528550D-01
              MO Center= -6.5D-05,  3.1D-11, -9.2D-02, r^2= 7.0D+00
   Bfn.  Coefficient  Atom+Function         Bfn.  Coefficient  Atom+Function  
  ----- ------------  ---------------      ----- ------------  ---------------
   310     -0.152608   8 N  pz                9      0.147725   1 C  pz        
   262     -0.128656   7 N  s               351      0.126569   9 O  px        
   397     -0.126588  10 O  px              267      0.119667   7 N  pz        
   179      0.111160   5 C  px              222     -0.111163   6 C  px        
   348      0.109523   9 O  s               394      0.109535  10 O  s         

 Vector   21  Occ=2.000000D+00  E=-6.395962D-01
              MO Center= -4.6D-06, -6.7D-11,  2.2D+00, r^2= 5.3D+00
   Bfn.  Coefficient  Atom+Function         Bfn.  Coefficient  Atom+Function  
  ----- ------------  ---------------      ----- ------------  ---------------
   308      0.285825   8 N  px              311      0.185861   8 N  px        
   474     -0.166344  15 H  s               483      0.166353  16 H  s         
   136      0.130763   4 C  px              473     -0.119393  15 H  s         
   482      0.119399  16 H  s               181     -0.114440   5 C  pz        
   224      0.114444   6 C  pz              314      0.095461   8 N  px        

 Vector   22  Occ=2.000000D+00  E=-6.270630D-01
              MO Center= -2.2D-05,  8.0D-09, -2.2D+00, r^2= 1.3D+00
   Bfn.  Coefficient  Atom+Function         Bfn.  Coefficient  Atom+Function  
  ----- ------------  ---------------      ----- ------------  ---------------
   266      0.348714   7 N  py              269      0.281630   7 N  py        
   352      0.190331   9 O  py              398      0.190344  10 O  py        
   355      0.155736   9 O  py              401      0.155746  10 O  py        
   272      0.109992   7 N  py              137      0.094862   4 C  py        
   358      0.078157   9 O  py              404      0.078162  10 O  py        

 Vector   23  Occ=2.000000D+00  E=-6.237747D-01
              MO Center= -6.8D-05, -6.8D-09, -1.8D-01, r^2= 8.3D+00
   Bfn.  Coefficient  Atom+Function         Bfn.  Coefficient  Atom+Function  
  ----- ------------  ---------------      ----- ------------  ---------------
   310      0.208413   8 N  pz              267      0.196953   7 N  pz        
     9     -0.187114   1 C  pz              351      0.158936   9 O  px        
   397     -0.158968  10 O  px               12     -0.125879   1 C  pz        
   348      0.123655   9 O  s               394      0.123671  10 O  s         
   270      0.116458   7 N  pz              262     -0.113171   7 N  s         

 Vector   24  Occ=2.000000D+00  E=-5.899785D-01
              MO Center=  1.3D-04,  2.6D-10, -2.0D+00, r^2= 5.4D+00
   Bfn.  Coefficient  Atom+Function         Bfn.  Coefficient  Atom+Function  
  ----- ------------  ---------------      ----- ------------  ---------------
   265      0.251953   7 N  px              351     -0.180563   9 O  px        
   397     -0.180530  10 O  px              268      0.172805   7 N  px        
   353      0.151282   9 O  pz              399     -0.151286  10 O  pz        
   348     -0.147552   9 O  s               394      0.147519  10 O  s         
   347     -0.145079   9 O  s               393      0.145051  10 O  s         

 Vector   25  Occ=2.000000D+00  E=-5.517144D-01
              MO Center= -5.0D-05, -1.2D-10,  7.5D-01, r^2= 4.7D+00
   Bfn.  Coefficient  Atom+Function         Bfn.  Coefficient  Atom+Function  
  ----- ------------  ---------------      ----- ------------  ---------------
   133      0.158307   4 C  s                50      0.151035   2 C  px        
    93     -0.151049   3 C  px              179     -0.141712   5 C  px        
   222      0.141709   6 C  px              438      0.138009  11 H  s         
   447      0.138021  12 H  s               132      0.133925   4 C  s         
   456     -0.106158  13 H  s               465     -0.106153  14 H  s         

 Vector   26  Occ=2.000000D+00  E=-5.431458D-01
              MO Center=  1.2D-05, -9.9D-11,  7.9D-01, r^2= 5.1D+00
   Bfn.  Coefficient  Atom+Function         Bfn.  Coefficient  Atom+Function  
  ----- ------------  ---------------      ----- ------------  ---------------
     7      0.195927   1 C  px              136      0.185090   4 C  px        
    52      0.144759   2 C  pz               95     -0.144762   3 C  pz        
   308     -0.142155   8 N  px              181     -0.131313   5 C  pz        
   224      0.131316   6 C  pz               10      0.122535   1 C  px        
   139      0.118830   4 C  px              179     -0.119222   5 C  px        

 Vector   27  Occ=2.000000D+00  E=-5.308295D-01
              MO Center=  1.7D-05, -5.4D-11,  7.2D-01, r^2= 4.1D+00
   Bfn.  Coefficient  Atom+Function         Bfn.  Coefficient  Atom+Function  
  ----- ------------  ---------------      ----- ------------  ---------------
    30      0.151447   1 C  dxz              52     -0.147533   2 C  pz        
    95      0.147533   3 C  pz              181      0.146500   5 C  pz        
   224     -0.146504   6 C  pz               50     -0.141767   2 C  px        
    93     -0.141754   3 C  px              179     -0.136650   5 C  px        
   222     -0.136657   6 C  px              438     -0.130331  11 H  s         

 Vector   28  Occ=2.000000D+00  E=-5.150819D-01
              MO Center= -1.1D-05,  1.4D-09,  1.5D+00, r^2= 3.3D+00
   Bfn.  Coefficient  Atom+Function         Bfn.  Coefficient  Atom+Function  
  ----- ------------  ---------------      ----- ------------  ---------------
     8      0.226826   1 C  py               11      0.182122   1 C  py        
   309      0.180610   8 N  py              312      0.160556   8 N  py        
    51      0.147160   2 C  py               94      0.147163   3 C  py        
    54      0.128276   2 C  py               97      0.128278   3 C  py        
   315      0.112453   8 N  py              180      0.110939   5 C  py        

 Vector   29  Occ=2.000000D+00  E=-5.037223D-01
              MO Center=  2.2D-05, -3.9D-10,  6.6D-01, r^2= 4.3D+00
   Bfn.  Coefficient  Atom+Function         Bfn.  Coefficient  Atom+Function  
  ----- ------------  ---------------      ----- ------------  ---------------
   181     -0.210541   5 C  pz              224     -0.210535   6 C  pz        
    52      0.199390   2 C  pz               95      0.199384   3 C  pz        
    33      0.174983   1 C  dzz              58      0.150890   2 C  pz        
   101      0.150887   3 C  pz              310      0.148913   8 N  pz        
     9     -0.147995   1 C  pz              187     -0.135918   5 C  pz        

 Vector   30  Occ=2.000000D+00  E=-4.491796D-01
              MO Center=  4.0D-05, -7.9D-12,  6.9D-01, r^2= 4.3D+00
   Bfn.  Coefficient  Atom+Function         Bfn.  Coefficient  Atom+Function  
  ----- ------------  ---------------      ----- ------------  ---------------
     7      0.208921   1 C  px              136     -0.199422   4 C  px        
    13      0.184441   1 C  px              179      0.177385   5 C  px        
   222      0.177379   6 C  px               50     -0.172453   2 C  px        
    93     -0.172447   3 C  px              185      0.163213   5 C  px        
   228      0.163209   6 C  px              159     -0.158820   4 C  dxz       

 Vector   31  Occ=2.000000D+00  E=-4.359620D-01
              MO Center= -5.4D-06,  1.3D-09,  1.2D+00, r^2= 5.2D+00
   Bfn.  Coefficient  Atom+Function         Bfn.  Coefficient  Atom+Function  
  ----- ------------  ---------------      ----- ------------  ---------------
   309      0.266538   8 N  py              312      0.241746   8 N  py        
   137     -0.205127   4 C  py              140     -0.178768   4 C  py        
   315      0.163235   8 N  py              180     -0.149973   5 C  py        
   223     -0.149969   6 C  py              183     -0.127673   5 C  py        
   226     -0.127670   6 C  py                8      0.120462   1 C  py        

 Vector   32  Occ=2.000000D+00  E=-3.952840D-01
              MO Center=  5.2D-06, -1.8D-09, -2.6D+00, r^2= 2.1D+00
   Bfn.  Coefficient  Atom+Function         Bfn.  Coefficient  Atom+Function  
  ----- ------------  ---------------      ----- ------------  ---------------
   352      0.342115   9 O  py              398     -0.342113  10 O  py        
   355      0.285516   9 O  py              401     -0.285514  10 O  py        
   358      0.195512   9 O  py              404     -0.195513  10 O  py        
   281      0.093980   7 N  dxy             180      0.037994   5 C  py        
   223     -0.038003   6 C  py              158     -0.037085   4 C  dxy       

 Vector   33  Occ=2.000000D+00  E=-3.881336D-01
              MO Center= -3.7D-04, -2.0D-10, -2.5D+00, r^2= 2.3D+00
   Bfn.  Coefficient  Atom+Function         Bfn.  Coefficient  Atom+Function  
  ----- ------------  ---------------      ----- ------------  ---------------
   353      0.316010   9 O  pz              399      0.316137  10 O  pz        
   356      0.252542   9 O  pz              402      0.252652  10 O  pz        
   359      0.194998   9 O  pz              405      0.195073  10 O  pz        
   138      0.170934   4 C  pz              264      0.152213   7 N  s         
   263     -0.109569   7 N  s               267     -0.101841   7 N  pz        

 Vector   34  Occ=2.000000D+00  E=-3.701054D-01
              MO Center=  4.0D-04,  1.0D-09, -2.6D+00, r^2= 2.1D+00
   Bfn.  Coefficient  Atom+Function         Bfn.  Coefficient  Atom+Function  
  ----- ------------  ---------------      ----- ------------  ---------------
   353      0.267359   9 O  pz              399     -0.267206  10 O  pz        
   351      0.234901   9 O  px              397      0.234881  10 O  px        
   356      0.230821   9 O  pz              402     -0.230698  10 O  pz        
   354      0.176695   9 O  px              400      0.176671  10 O  px        
   357      0.160458   9 O  px              403      0.160449  10 O  px        

 Vector   35  Occ=2.000000D+00  E=-3.662813D-01
              MO Center= -2.9D-05,  2.2D-10,  5.8D-01, r^2= 3.3D+00
   Bfn.  Coefficient  Atom+Function         Bfn.  Coefficient  Atom+Function  
  ----- ------------  ---------------      ----- ------------  ---------------
    51      0.214340   2 C  py               94     -0.214346   3 C  py        
   180      0.212362   5 C  py              223     -0.212369   6 C  py        
    54      0.188410   2 C  py               97     -0.188416   3 C  py        
   183      0.181555   5 C  py              226     -0.181562   6 C  py        
   186      0.124218   5 C  py              229     -0.124232   6 C  py        

 Vector   36  Occ=2.000000D+00  E=-3.127314D-01
              MO Center=  3.5D-05,  3.3D-10,  1.4D+00, r^2= 4.8D+00
   Bfn.  Coefficient  Atom+Function         Bfn.  Coefficient  Atom+Function  
  ----- ------------  ---------------      ----- ------------  ---------------
   309      0.269961   8 N  py              312      0.251531   8 N  py        
   137      0.219331   4 C  py              143      0.192673   4 C  py        
   140      0.190814   4 C  py              315      0.187334   8 N  py        
    51     -0.166169   2 C  py               94     -0.166156   3 C  py        
    54     -0.147447   2 C  py               97     -0.147435   3 C  py        

 Vector   37  Occ=0.000000D+00  E=-1.277158D-02
              MO Center=  3.2D-05, -9.6D-09, -1.3D+00, r^2= 5.3D+00
   Bfn.  Coefficient  Atom+Function         Bfn.  Coefficient  Atom+Function  
  ----- ------------  ---------------      ----- ------------  ---------------
   266      0.294385   7 N  py              269      0.273808   7 N  py        
   352     -0.228365   9 O  py              398     -0.228362  10 O  py        
   272      0.212165   7 N  py              358     -0.203655   9 O  py        
   404     -0.203651  10 O  py              161     -0.196957   4 C  dyz       
   355     -0.196028   9 O  py              401     -0.196025  10 O  py        

 Vector   38  Occ=0.000000D+00  E= 3.658108D-02
              MO Center= -4.3D-05, -2.7D-09,  7.0D-01, r^2= 4.2D+00
   Bfn.  Coefficient  Atom+Function         Bfn.  Coefficient  Atom+Function  
  ----- ------------  ---------------      ----- ------------  ---------------
    29      0.430757   1 C  dxy             158     -0.333664   4 C  dxy       
   180     -0.225151   5 C  py              223      0.225156   6 C  py        
    54      0.218482   2 C  py               97     -0.218489   3 C  py        
   183     -0.219002   5 C  py              226      0.219007   6 C  py        
    51      0.214279   2 C  py               94     -0.214286   3 C  py        

 Vector   39  Occ=0.000000D+00  E= 4.445456D-02
              MO Center= -1.1D-04,  1.9D-08,  3.4D+00, r^2= 1.2D+01
   Bfn.  Coefficient  Atom+Function         Bfn.  Coefficient  Atom+Function  
  ----- ------------  ---------------      ----- ------------  ---------------
   307      4.050593   8 N  s               475     -3.260685  15 H  s         
   484     -3.260616  16 H  s                49      3.139935   2 C  s         
    92      3.140260   3 C  s                15      1.982245   1 C  pz        
   264      1.834654   7 N  s               439     -1.789292  11 H  s         
   448     -1.789237  12 H  s                 5      1.484995   1 C  s         

 Vector   40  Occ=0.000000D+00  E= 6.499573D-02
              MO Center= -4.3D-04,  6.8D-09,  2.1D+00, r^2= 1.7D+01
   Bfn.  Coefficient  Atom+Function         Bfn.  Coefficient  Atom+Function  
  ----- ------------  ---------------      ----- ------------  ---------------
    49      6.792013   2 C  s                92     -6.792904   3 C  s         
    71     -2.101777   2 C  dxx             114      2.102004   3 C  dxx       
   475      1.786615  15 H  s               484     -1.787782  16 H  s         
   439      1.777365  11 H  s               448     -1.777723  12 H  s         
    73     -1.519054   2 C  dxz             116     -1.519122   3 C  dxz       

 Vector   41  Occ=0.000000D+00  E= 6.688421D-02
              MO Center=  4.3D-04, -3.0D-08,  4.7D-01, r^2= 2.1D+01
   Bfn.  Coefficient  Atom+Function         Bfn.  Coefficient  Atom+Function  
  ----- ------------  ---------------      ----- ------------  ---------------
   264     11.602072   7 N  s                 6     -4.554041   1 C  s         
   350     -4.114333   9 O  s               396     -4.114185  10 O  s         
   178      3.589067   5 C  s               221      3.589569   6 C  s         
   475      2.695143  15 H  s               484      2.694432  16 H  s         
    49      2.467574   2 C  s                92      2.464849   3 C  s         

 Vector   42  Occ=0.000000D+00  E= 8.023619D-02
              MO Center=  2.5D-05, -1.0D-07,  2.9D-01, r^2= 7.0D+00
   Bfn.  Coefficient  Atom+Function         Bfn.  Coefficient  Atom+Function  
  ----- ------------  ---------------      ----- ------------  ---------------
   161      0.337479   4 C  dyz               8      0.268116   1 C  py        
    11      0.263589   1 C  py              266     -0.240606   7 N  py        
   204     -0.235844   5 C  dyz             247     -0.235844   6 C  dyz       
   269     -0.228601   7 N  py              140      0.208422   4 C  py        
   137      0.206934   4 C  py              444     -0.172860  11 H  py        

 Vector   43  Occ=0.000000D+00  E= 9.094769D-02
              MO Center= -4.4D-04,  9.3D-08, -9.4D-01, r^2= 2.5D+01
   Bfn.  Coefficient  Atom+Function         Bfn.  Coefficient  Atom+Function  
  ----- ------------  ---------------      ----- ------------  ---------------
   264     13.147607   7 N  s               135      8.900942   4 C  s         
     6      8.476816   1 C  s                49     -7.202210   2 C  s         
    92     -7.204939   3 C  s               350     -6.760908   9 O  s         
   396     -6.762928  10 O  s               162     -4.080506   4 C  dzz       
   457     -2.927854  13 H  s               466     -2.925961  14 H  s         

 Vector   44  Occ=0.000000D+00  E= 9.237036D-02
              MO Center=  4.0D-04, -1.4D-08, -4.0D-01, r^2= 2.4D+01
   Bfn.  Coefficient  Atom+Function         Bfn.  Coefficient  Atom+Function  
  ----- ------------  ---------------      ----- ------------  ---------------
   178      9.336341   5 C  s               221     -9.336351   6 C  s         
    49     -6.195068   2 C  s                92      6.191734   3 C  s         
   350     -4.269631   9 O  s               396      4.266614  10 O  s         
   457      3.836185  13 H  s               466     -3.837327  14 H  s         
   202      2.583690   5 C  dxz             245      2.584645   6 C  dxz       

 Vector   45  Occ=0.000000D+00  E= 9.702432D-02
              MO Center=  4.4D-05, -5.2D-09,  1.4D-01, r^2= 1.8D+01
   Bfn.  Coefficient  Atom+Function         Bfn.  Coefficient  Atom+Function  
  ----- ------------  ---------------      ----- ------------  ---------------
   264     16.537010   7 N  s                 6    -10.586668   1 C  s         
   135     -5.727437   4 C  s               307      5.326762   8 N  s         
   350     -5.224994   9 O  s               396     -5.224700  10 O  s         
   439     -3.275372  11 H  s               448     -3.275506  12 H  s         
   475     -2.803545  15 H  s               484     -2.803400  16 H  s         

 Vector   46  Occ=0.000000D+00  E= 1.276511D-01
              MO Center= -4.0D-04,  7.5D-09, -2.3D-01, r^2= 2.7D+01
   Bfn.  Coefficient  Atom+Function         Bfn.  Coefficient  Atom+Function  
  ----- ------------  ---------------      ----- ------------  ---------------
    30      5.710271   1 C  dxz             475      4.605271  15 H  s         
   484     -4.607110  16 H  s               178     -3.452036   5 C  s         
   221      3.458118   6 C  s               350     -3.272352   9 O  s         
   396      3.275248  10 O  s                13      2.483852   1 C  px        
    58     -1.966688   2 C  pz              101      1.967286   3 C  pz        

 Vector   47  Occ=0.000000D+00  E= 1.282038D-01
              MO Center=  4.0D-04,  5.1D-08,  2.8D-01, r^2= 2.6D+01
   Bfn.  Coefficient  Atom+Function         Bfn.  Coefficient  Atom+Function  
  ----- ------------  ---------------      ----- ------------  ---------------
   264     11.751951   7 N  s               178     -9.350592   5 C  s         
   221     -9.348253   6 C  s               135      7.892044   4 C  s         
   307     -6.597265   8 N  s                49      4.862404   2 C  s         
    92      4.863216   3 C  s               350     -4.828468   9 O  s         
   396     -4.826433  10 O  s               439     -4.066203  11 H  s         

 Vector   48  Occ=0.000000D+00  E= 1.300284D-01
              MO Center= -9.4D-05,  1.2D-07, -2.7D+00, r^2= 1.2D+01
   Bfn.  Coefficient  Atom+Function         Bfn.  Coefficient  Atom+Function  
  ----- ------------  ---------------      ----- ------------  ---------------
   161      1.717756   4 C  dyz             290      1.127273   7 N  dyz       
   361      0.906600   9 O  py              407      0.906678  10 O  py        
   186     -0.601873   5 C  py              229     -0.601931   6 C  py        
   201      0.570977   5 C  dxy             244     -0.570988   6 C  dxy       
   376     -0.439769   9 O  dxy             422      0.439793  10 O  dxy       

 Vector   49  Occ=0.000000D+00  E= 1.379632D-01
              MO Center=  3.3D-06, -6.6D-09,  2.4D-01, r^2= 1.9D+01
   Bfn.  Coefficient  Atom+Function         Bfn.  Coefficient  Atom+Function  
  ----- ------------  ---------------      ----- ------------  ---------------
   135     19.150992   4 C  s               264    -15.995526   7 N  s         
     6    -15.109308   1 C  s               439     -9.331659  11 H  s         
   448     -9.331747  12 H  s               178     -6.847004   5 C  s         
   221     -6.846881   6 C  s                49      4.938126   2 C  s         
    92      4.937931   3 C  s               350      4.559093   9 O  s         

 Vector   50  Occ=0.000000D+00  E= 1.580333D-01
              MO Center=  7.2D-05,  5.4D-08, -1.2D+00, r^2= 1.6D+01
   Bfn.  Coefficient  Atom+Function         Bfn.  Coefficient  Atom+Function  
  ----- ------------  ---------------      ----- ------------  ---------------
   158      3.406485   4 C  dxy             287     -1.998460   7 N  dxy       
    57     -1.986997   2 C  py              100      1.987002   3 C  py        
    29      1.948557   1 C  dxy             204      1.910320   5 C  dyz       
   247     -1.910326   6 C  dyz             186     -1.477727   5 C  py        
   229      1.477698   6 C  py              361      1.291295   9 O  py        

 Vector   51  Occ=0.000000D+00  E= 1.660179D-01
              MO Center= -4.3D-05, -1.3D-07,  2.7D+00, r^2= 9.8D+00
   Bfn.  Coefficient  Atom+Function         Bfn.  Coefficient  Atom+Function  
  ----- ------------  ---------------      ----- ------------  ---------------
   315      1.172357   8 N  py              161      1.086178   4 C  dyz       
    32     -0.918176   1 C  dyz             204     -0.763568   5 C  dyz       
   247     -0.763546   6 C  dyz             444     -0.623683  11 H  py        
   453     -0.623717  12 H  py              480     -0.624134  15 H  py        
   489     -0.624106  16 H  py               57      0.608517   2 C  py        

 Vector   52  Occ=0.000000D+00  E= 1.679073D-01
              MO Center= -5.9D-04,  9.1D-09,  3.2D-02, r^2= 2.3D+01
   Bfn.  Coefficient  Atom+Function         Bfn.  Coefficient  Atom+Function  
  ----- ------------  ---------------      ----- ------------  ---------------
     6     10.735766   1 C  s               307     -5.854066   8 N  s         
    49     -4.917846   2 C  s                92     -4.923887   3 C  s         
   457     -3.233612  13 H  s               466     -3.231867  14 H  s         
   306      2.970896   8 N  s               135      2.816693   4 C  s         
   178     -2.484283   5 C  s               221     -2.477340   6 C  s         

 Vector   53  Occ=0.000000D+00  E= 1.683804D-01
              MO Center=  5.8D-04, -3.5D-08,  2.5D-01, r^2= 2.5D+01
   Bfn.  Coefficient  Atom+Function         Bfn.  Coefficient  Atom+Function  
  ----- ------------  ---------------      ----- ------------  ---------------
   178      7.968343   5 C  s               221     -7.970475   6 C  s         
    49     -6.726357   2 C  s                92      6.721908   3 C  s         
    30      5.787837   1 C  dxz             439      3.809159  11 H  s         
   448     -3.808795  12 H  s               475      3.506708  15 H  s         
   484     -3.506584  16 H  s               457      2.266921  13 H  s         

 Vector   54  Occ=0.000000D+00  E= 1.803758D-01
              MO Center= -1.8D-05, -4.0D-08,  8.3D-01, r^2= 1.6D+01
   Bfn.  Coefficient  Atom+Function         Bfn.  Coefficient  Atom+Function  
  ----- ------------  ---------------      ----- ------------  ---------------
   439     16.741292  11 H  s               448    -16.741162  12 H  s         
   457     12.179507  13 H  s               466    -12.179656  14 H  s         
    48     -8.452295   2 C  s                91      8.452233   3 C  s         
   177     -7.685829   5 C  s               220      7.685827   6 C  s         
    56     -7.517627   2 C  px               99     -7.517578   3 C  px        

 Vector   55  Occ=0.000000D+00  E= 1.891096D-01
              MO Center=  8.9D-06,  3.6D-08, -1.1D+00, r^2= 1.9D+01
   Bfn.  Coefficient  Atom+Function         Bfn.  Coefficient  Atom+Function  
  ----- ------------  ---------------      ----- ------------  ---------------
   264     18.651597   7 N  s                 6    -12.540383   1 C  s         
    49      8.601137   2 C  s                92      8.600781   3 C  s         
   350     -7.707344   9 O  s               396     -7.707480  10 O  s         
    33      4.165666   1 C  dzz             157     -3.846983   4 C  dxx       
    28      3.613948   1 C  dxx             457      3.556805  13 H  s         

 Vector   56  Occ=0.000000D+00  E= 1.917875D-01
              MO Center=  1.3D-05, -1.8D-08,  1.0D+00, r^2= 1.9D+01
   Bfn.  Coefficient  Atom+Function         Bfn.  Coefficient  Atom+Function  
  ----- ------------  ---------------      ----- ------------  ---------------
    29      4.844022   1 C  dxy              57     -2.546135   2 C  py        
   100      2.546160   3 C  py               75     -2.478880   2 C  dyz       
   118      2.478871   3 C  dyz             330     -1.136981   8 N  dxy       
   361     -1.071700   9 O  py              407      1.071695  10 O  py        
   444      1.016232  11 H  py              453     -1.016238  12 H  py        

 Vector   57  Occ=0.000000D+00  E= 2.069009D-01
              MO Center= -3.5D-05,  1.7D-08,  9.3D-01, r^2= 2.0D+01
   Bfn.  Coefficient  Atom+Function         Bfn.  Coefficient  Atom+Function  
  ----- ------------  ---------------      ----- ------------  ---------------
   178     10.838099   5 C  s               221     10.838343   6 C  s         
   135     -8.183106   4 C  s                49     -6.603754   2 C  s         
    92     -6.603974   3 C  s               264     -6.133511   7 N  s         
   307     -5.609868   8 N  s               439      5.330660  11 H  s         
   448      5.330565  12 H  s               457     -3.460222  13 H  s         

 Vector   58  Occ=0.000000D+00  E= 2.216757D-01
              MO Center=  3.5D-05, -2.1D-09, -8.8D-01, r^2= 2.4D+01
   Bfn.  Coefficient  Atom+Function         Bfn.  Coefficient  Atom+Function  
  ----- ------------  ---------------      ----- ------------  ---------------
   178     13.742191   5 C  s               221    -13.741929   6 C  s         
    49    -10.599072   2 C  s                92     10.599206   3 C  s         
   439     -7.644598  11 H  s               448      7.644577  12 H  s         
    73      4.908853   2 C  dxz             116      4.908863   3 C  dxz       
   475      3.480885  15 H  s               484     -3.480799  16 H  s         

 Vector   59  Occ=0.000000D+00  E= 2.228467D-01
              MO Center= -2.8D-05, -5.4D-09,  9.8D-02, r^2= 1.1D+01
   Bfn.  Coefficient  Atom+Function         Bfn.  Coefficient  Atom+Function  
  ----- ------------  ---------------      ----- ------------  ---------------
   161      0.994580   4 C  dyz             462     -0.942407  13 H  py        
   471     -0.942440  14 H  py              143     -0.874522   4 C  py        
    32     -0.833358   1 C  dyz              75      0.786603   2 C  dyz       
   118      0.786584   3 C  dyz             444     -0.776135  11 H  py        
   453     -0.776127  12 H  py               14     -0.728907   1 C  py        

 Vector   60  Occ=0.000000D+00  E= 2.305894D-01
              MO Center= -9.7D-05, -1.4D-07, -2.0D-02, r^2= 1.7D+01
   Bfn.  Coefficient  Atom+Function         Bfn.  Coefficient  Atom+Function  
  ----- ------------  ---------------      ----- ------------  ---------------
   135     19.077219   4 C  s                 6      7.808730   1 C  s         
   178     -6.502167   5 C  s               221     -6.500443   6 C  s         
    49     -5.825523   2 C  s                92     -5.827478   3 C  s         
   350     -5.131320   9 O  s               396     -5.130802  10 O  s         
   349      4.077871   9 O  s               395      4.077549  10 O  s         

 Vector   61  Occ=0.000000D+00  E= 2.315968D-01
              MO Center= -2.3D-05,  1.1D-07,  2.3D+00, r^2= 9.7D+00
   Bfn.  Coefficient  Atom+Function         Bfn.  Coefficient  Atom+Function  
  ----- ------------  ---------------      ----- ------------  ---------------
    57      1.284067   2 C  py              100      1.284062   3 C  py        
   204     -1.189611   5 C  dyz             247     -1.189672   6 C  dyz       
   315     -1.063650   8 N  py               75     -1.008838   2 C  dyz       
   118     -1.008848   3 C  dyz             143     -0.935359   4 C  py        
   480      0.804269  15 H  py              489      0.804229  16 H  py        

 Vector   62  Occ=0.000000D+00  E= 2.321224D-01
              MO Center=  5.9D-05, -3.2D-08,  5.3D-01, r^2= 1.8D+01
   Bfn.  Coefficient  Atom+Function         Bfn.  Coefficient  Atom+Function  
  ----- ------------  ---------------      ----- ------------  ---------------
   457     14.261842  13 H  s               466    -14.261524  14 H  s         
    49    -12.640191   2 C  s                92     12.639511   3 C  s         
   439    -12.539417  11 H  s               448     12.538880  12 H  s         
   178     11.388041   5 C  s               221    -11.389531   6 C  s         
   159      6.717641   4 C  dxz              30      6.657785   1 C  dxz       

 Vector   63  Occ=0.000000D+00  E= 2.417519D-01
              MO Center=  9.0D-05,  5.1D-08,  1.5D+00, r^2= 1.7D+01
   Bfn.  Coefficient  Atom+Function         Bfn.  Coefficient  Atom+Function  
  ----- ------------  ---------------      ----- ------------  ---------------
   158      6.535607   4 C  dxy             186     -4.102239   5 C  py        
   229      4.102241   6 C  py              204      2.521480   5 C  dyz       
   247     -2.521408   6 C  dyz             201      1.434309   5 C  dxy       
   244      1.434301   6 C  dxy             480      1.156399  15 H  py        
   489     -1.156433  16 H  py               75     -0.968524   2 C  dyz       

 Vector   64  Occ=0.000000D+00  E= 2.426185D-01
              MO Center= -2.3D-05, -9.7D-08,  9.9D-01, r^2= 1.3D+01
   Bfn.  Coefficient  Atom+Function         Bfn.  Coefficient  Atom+Function  
  ----- ------------  ---------------      ----- ------------  ---------------
     6     10.816705   1 C  s               135     10.775925   4 C  s         
   264     -9.123304   7 N  s               475     -4.071154  15 H  s         
   484     -4.070998  16 H  s               307     -3.513482   8 N  s         
    15      3.492660   1 C  pz              162     -3.221901   4 C  dzz       
    28     -2.910063   1 C  dxx              31     -2.803817   1 C  dyy       

 Vector   65  Occ=0.000000D+00  E= 2.500335D-01
              MO Center= -6.2D-05, -1.8D-08,  1.5D-01, r^2= 1.6D+01
   Bfn.  Coefficient  Atom+Function         Bfn.  Coefficient  Atom+Function  
  ----- ------------  ---------------      ----- ------------  ---------------
   264    -13.405712   7 N  s                49     12.570646   2 C  s         
    92     12.571020   3 C  s                 6    -10.358771   1 C  s         
   457      9.612224  13 H  s               466      9.611378  14 H  s         
   178     -8.257352   5 C  s               221     -8.258057   6 C  s         
   350      7.828549   9 O  s               396      7.829506  10 O  s         

 Vector   66  Occ=0.000000D+00  E= 2.547801D-01
              MO Center= -3.9D-06, -4.5D-09,  1.8D-02, r^2= 1.9D+01
   Bfn.  Coefficient  Atom+Function         Bfn.  Coefficient  Atom+Function  
  ----- ------------  ---------------      ----- ------------  ---------------
   457     13.513716  13 H  s               466    -13.514694  14 H  s         
   178      7.444460   5 C  s               221     -7.444005   6 C  s         
   439     -6.658453  11 H  s               448      6.658214  12 H  s         
   159      6.516522   4 C  dxz             202      6.214953   5 C  dxz       
   245      6.215193   6 C  dxz              30      5.407538   1 C  dxz       

 Vector   67  Occ=0.000000D+00  E= 2.585666D-01
              MO Center= -3.6D-05,  9.6D-08,  1.4D+00, r^2= 1.8D+01
   Bfn.  Coefficient  Atom+Function         Bfn.  Coefficient  Atom+Function  
  ----- ------------  ---------------      ----- ------------  ---------------
     6     13.560288   1 C  s               475    -10.922551  15 H  s         
   484    -10.921773  16 H  s               306      9.858320   8 N  s         
   457     -8.984195  13 H  s               466     -8.983128  14 H  s         
   135     -7.820626   4 C  s               157      7.528374   4 C  dxx       
   307     -6.854380   8 N  s               264     -5.470382   7 N  s         

 Vector   68  Occ=0.000000D+00  E= 2.652537D-01
              MO Center=  1.4D-04,  1.0D-09, -6.6D-01, r^2= 1.9D+01
   Bfn.  Coefficient  Atom+Function         Bfn.  Coefficient  Atom+Function  
  ----- ------------  ---------------      ----- ------------  ---------------
   350     11.991082   9 O  s               396    -11.990207  10 O  s         
   178     -9.375743   5 C  s               221      9.375346   6 C  s         
    49      8.833951   2 C  s                92     -8.833410   3 C  s         
   159      6.240493   4 C  dxz             349     -5.073813   9 O  s         
   395      5.073586  10 O  s               271      4.033956   7 N  px        

 Vector   69  Occ=0.000000D+00  E= 2.830720D-01
              MO Center= -2.0D-05,  6.6D-07,  1.0D+00, r^2= 1.4D+01
   Bfn.  Coefficient  Atom+Function         Bfn.  Coefficient  Atom+Function  
  ----- ------------  ---------------      ----- ------------  ---------------
   264     19.337036   7 N  s               135     13.173280   4 C  s         
   307    -13.005930   8 N  s                 6     11.511210   1 C  s         
   178    -10.511850   5 C  s               221    -10.512132   6 C  s         
   162     -7.117670   4 C  dzz             350     -6.476845   9 O  s         
   396     -6.476711  10 O  s               306      6.355356   8 N  s         

 Vector   70  Occ=0.000000D+00  E= 2.874489D-01
              MO Center= -2.7D-05, -6.7D-07,  1.3D+00, r^2= 1.1D+01
   Bfn.  Coefficient  Atom+Function         Bfn.  Coefficient  Atom+Function  
  ----- ------------  ---------------      ----- ------------  ---------------
    32      3.314817   1 C  dyz             204      2.760966   5 C  dyz       
   247      2.760981   6 C  dyz              72     -2.600966   2 C  dxy       
   115      2.600932   3 C  dxy             186      2.473992   5 C  py        
   229      2.474054   6 C  py               75      2.028931   2 C  dyz       
   118      2.028928   3 C  dyz              14     -1.788552   1 C  py        

 Vector   71  Occ=0.000000D+00  E= 2.957971D-01
              MO Center= -2.2D-05, -1.4D-06,  8.6D-02, r^2= 9.6D+00
   Bfn.  Coefficient  Atom+Function         Bfn.  Coefficient  Atom+Function  
  ----- ------------  ---------------      ----- ------------  ---------------
   161      3.731713   4 C  dyz              32     -3.216947   1 C  dyz       
   201      2.348324   5 C  dxy             244     -2.348286   6 C  dxy       
    57     -1.965368   2 C  py              100     -1.965417   3 C  py        
    75      1.558483   2 C  dyz             118      1.558462   3 C  dyz       
   143      1.336647   4 C  py              272      0.974169   7 N  py        

 Vector   72  Occ=0.000000D+00  E= 2.975296D-01
              MO Center= -4.8D-05,  1.4D-06,  7.8D-01, r^2= 1.7D+01
   Bfn.  Coefficient  Atom+Function         Bfn.  Coefficient  Atom+Function  
  ----- ------------  ---------------      ----- ------------  ---------------
   264     23.134414   7 N  s               307     16.672176   8 N  s         
     6    -15.069125   1 C  s               350    -10.480985   9 O  s         
   396    -10.480797  10 O  s               439     -8.537952  11 H  s         
   448     -8.538457  12 H  s               475     -7.475754  15 H  s         
   484     -7.475957  16 H  s                 5      5.332299   1 C  s         

 Vector   73  Occ=0.000000D+00  E= 3.012009D-01
              MO Center= -2.9D-04, -2.0D-09,  2.0D-01, r^2= 1.8D+01
   Bfn.  Coefficient  Atom+Function         Bfn.  Coefficient  Atom+Function  
  ----- ------------  ---------------      ----- ------------  ---------------
   178      9.775638   5 C  s               221     -9.770213   6 C  s         
   439      4.762938  11 H  s               448     -4.750453  12 H  s         
   159     -2.861567   4 C  dxz             457     -2.761244  13 H  s         
   466      2.760739  14 H  s               200     -2.505625   5 C  dxx       
   243      2.505854   6 C  dxx             205     -2.425018   5 C  dzz       

 Vector   74  Occ=0.000000D+00  E= 3.018385D-01
              MO Center=  3.1D-04,  3.6D-08,  5.8D-01, r^2= 1.6D+01
   Bfn.  Coefficient  Atom+Function         Bfn.  Coefficient  Atom+Function  
  ----- ------------  ---------------      ----- ------------  ---------------
   264     33.743125   7 N  s               135    -25.120873   4 C  s         
     6     16.139317   1 C  s               439     16.112101  11 H  s         
   448     16.115969  12 H  s               263    -10.392868   7 N  s         
   350     -8.662363   9 O  s               396     -8.661172  10 O  s         
   306     -7.297780   8 N  s                58     -7.185214   2 C  pz        

 Vector   75  Occ=0.000000D+00  E= 3.089299D-01
              MO Center= -4.4D-05, -2.7D-08,  2.7D+00, r^2= 1.2D+01
   Bfn.  Coefficient  Atom+Function         Bfn.  Coefficient  Atom+Function  
  ----- ------------  ---------------      ----- ------------  ---------------
   475     13.423300  15 H  s               484    -13.422468  16 H  s         
    30      9.898415   1 C  dxz             457     -7.294167  13 H  s         
   466      7.294517  14 H  s               202     -6.493786   5 C  dxz       
   245     -6.494017   6 C  dxz              13      5.723447   1 C  px        
    58     -4.833042   2 C  pz              101      4.833095   3 C  pz        

 Vector   76  Occ=0.000000D+00  E= 3.105385D-01
              MO Center=  5.9D-05, -1.8D-07,  1.2D+00, r^2= 1.8D+01
   Bfn.  Coefficient  Atom+Function         Bfn.  Coefficient  Atom+Function  
  ----- ------------  ---------------      ----- ------------  ---------------
   264     23.738629   7 N  s               475    -12.705475  15 H  s         
   484    -12.706347  16 H  s               162     -7.921010   4 C  dzz       
    33      7.823514   1 C  dzz              15      6.614819   1 C  pz        
   306      6.167033   8 N  s               135     -5.473573   4 C  s         
   263     -5.496426   7 N  s               457     -5.438136  13 H  s         

 Vector   77  Occ=0.000000D+00  E= 3.241574D-01
              MO Center= -4.6D-05, -3.9D-07, -2.7D-01, r^2= 1.9D+01
   Bfn.  Coefficient  Atom+Function         Bfn.  Coefficient  Atom+Function  
  ----- ------------  ---------------      ----- ------------  ---------------
   264     46.071630   7 N  s               350    -16.676794   9 O  s         
   396    -16.677509  10 O  s               307    -12.299110   8 N  s         
    28      7.302180   1 C  dxx             263     -7.198255   7 N  s         
    58     -4.773441   2 C  pz              101     -4.773356   3 C  pz        
    49      4.402229   2 C  s                92      4.402322   3 C  s         

 Vector   78  Occ=0.000000D+00  E= 3.267281D-01
              MO Center= -6.0D-05,  5.6D-08,  8.6D-01, r^2= 1.6D+01
   Bfn.  Coefficient  Atom+Function         Bfn.  Coefficient  Atom+Function  
  ----- ------------  ---------------      ----- ------------  ---------------
   158      7.938121   4 C  dxy              29     -4.578294   1 C  dxy       
   186     -3.940999   5 C  py              229      3.941327   6 C  py        
    57      2.867485   2 C  py              100     -2.867793   3 C  py        
    75      2.579625   2 C  dyz             118     -2.579656   3 C  dyz       
   204      2.560222   5 C  dyz             247     -2.560204   6 C  dyz       

 Vector   79  Occ=0.000000D+00  E= 3.305820D-01
              MO Center= -1.9D-04,  2.4D-08,  3.1D-01, r^2= 1.5D+01
   Bfn.  Coefficient  Atom+Function         Bfn.  Coefficient  Atom+Function  
  ----- ------------  ---------------      ----- ------------  ---------------
   135     22.355664   4 C  s                 6    -16.968160   1 C  s         
   178    -16.671599   5 C  s               221    -16.672371   6 C  s         
    49     12.287769   2 C  s                92     12.288716   3 C  s         
    33    -10.251714   1 C  dzz             439    -10.229066  11 H  s         
   448    -10.229794  12 H  s               307      9.317938   8 N  s         

 Vector   80  Occ=0.000000D+00  E= 3.323105D-01
              MO Center=  2.4D-04,  1.3D-08,  6.8D-02, r^2= 1.6D+01
   Bfn.  Coefficient  Atom+Function         Bfn.  Coefficient  Atom+Function  
  ----- ------------  ---------------      ----- ------------  ---------------
   350      7.372544   9 O  s               396     -7.370113  10 O  s         
   457     -6.736992  13 H  s               466      6.734326  14 H  s         
   475     -5.840690  15 H  s               484      5.839323  16 H  s         
   200     -4.320818   5 C  dxx             243      4.321171   6 C  dxx       
   187     -4.071186   5 C  pz              230      4.069479   6 C  pz        

 Vector   81  Occ=0.000000D+00  E= 3.324241D-01
              MO Center=  7.8D-05, -2.4D-07, -7.0D-02, r^2= 1.3D+01
   Bfn.  Coefficient  Atom+Function         Bfn.  Coefficient  Atom+Function  
  ----- ------------  ---------------      ----- ------------  ---------------
   161      6.911268   4 C  dyz             186     -4.632556   5 C  py        
   229     -4.632152   6 C  py               32      4.406240   1 C  dyz       
   143      3.844986   4 C  py               57      3.718372   2 C  py        
   100      3.718045   3 C  py              201      2.844737   5 C  dxy       
   244     -2.844426   6 C  dxy              14     -1.722777   1 C  py        

 Vector   82  Occ=0.000000D+00  E= 3.484227D-01
              MO Center= -1.1D-05, -1.9D-07,  1.0D+00, r^2= 1.0D+01
   Bfn.  Coefficient  Atom+Function         Bfn.  Coefficient  Atom+Function  
  ----- ------------  ---------------      ----- ------------  ---------------
    32      6.025518   1 C  dyz              14     -4.634002   1 C  py        
    72     -3.323720   2 C  dxy             115      3.323719   3 C  dxy       
   161     -2.827669   4 C  dyz              57      2.474478   2 C  py        
   100      2.474421   3 C  py              480     -0.848131  15 H  py        
   489     -0.848081  16 H  py              290     -0.759375   7 N  dyz       

 Vector   83  Occ=0.000000D+00  E= 3.516778D-01
              MO Center=  5.1D-06, -6.2D-08,  1.2D+00, r^2= 1.4D+01
   Bfn.  Coefficient  Atom+Function         Bfn.  Coefficient  Atom+Function  
  ----- ------------  ---------------      ----- ------------  ---------------
   439     20.173570  11 H  s               448    -20.173356  12 H  s         
   457     12.688115  13 H  s               466    -12.688382  14 H  s         
    48     -9.606459   2 C  s                91      9.606392   3 C  s         
    56     -8.651137   2 C  px               99     -8.651003   3 C  px        
   177     -8.581880   5 C  s               220      8.581841   6 C  s         

 Vector   84  Occ=0.000000D+00  E= 3.631523D-01
              MO Center= -8.4D-06,  3.3D-08,  1.0D+00, r^2= 1.4D+01
   Bfn.  Coefficient  Atom+Function         Bfn.  Coefficient  Atom+Function  
  ----- ------------  ---------------      ----- ------------  ---------------
     6     20.513378   1 C  s               457    -14.605716  13 H  s         
   466    -14.607181  14 H  s                49    -10.931178   2 C  s         
    92    -10.931014   3 C  s               264      8.967580   7 N  s         
   157      8.138643   4 C  dxx             306      7.432436   8 N  s         
    33     -7.105674   1 C  dzz             200      6.675268   5 C  dxx       

 Vector   85  Occ=0.000000D+00  E= 3.778467D-01
              MO Center= -1.4D-03, -4.5D-08, -1.1D+00, r^2= 1.3D+01
   Bfn.  Coefficient  Atom+Function         Bfn.  Coefficient  Atom+Function  
  ----- ------------  ---------------      ----- ------------  ---------------
   457     10.595286  13 H  s               466     10.565008  14 H  s         
   162     10.166150   4 C  dzz              33      7.814591   1 C  dzz       
    49      7.654815   2 C  s                92      7.662998   3 C  s         
     6     -6.515504   1 C  s               350      6.489421   9 O  s         
   396      6.500344  10 O  s               264     -5.980825   7 N  s         

 Vector   86  Occ=0.000000D+00  E= 3.785255D-01
              MO Center=  1.4D-03, -3.9D-08,  1.3D-01, r^2= 1.2D+01
   Bfn.  Coefficient  Atom+Function         Bfn.  Coefficient  Atom+Function  
  ----- ------------  ---------------      ----- ------------  ---------------
   457     12.857508  13 H  s               466    -12.881031  14 H  s         
   439     10.201638  11 H  s               448    -10.211510  12 H  s         
   178      8.753131   5 C  s               221     -8.743991   6 C  s         
    30      7.667488   1 C  dxz             205     -7.463249   5 C  dzz       
   248      7.461805   6 C  dzz             159     -7.029851   4 C  dxz       

 Vector   87  Occ=0.000000D+00  E= 3.839679D-01
              MO Center= -1.7D-05, -2.1D-08,  6.0D-01, r^2= 1.2D+01
   Bfn.  Coefficient  Atom+Function         Bfn.  Coefficient  Atom+Function  
  ----- ------------  ---------------      ----- ------------  ---------------
   158      6.905127   4 C  dxy              29      5.698054   1 C  dxy       
    72      3.525214   2 C  dxy             115      3.525271   3 C  dxy       
   287     -2.974029   7 N  dxy             444     -2.219381  11 H  py        
   453      2.219434  12 H  py               57     -1.942236   2 C  py        
   100      1.942186   3 C  py              201      1.883402   5 C  dxy       

 Vector   88  Occ=0.000000D+00  E= 3.870248D-01
              MO Center=  4.0D-05,  5.5D-07,  6.9D-01, r^2= 1.6D+01
   Bfn.  Coefficient  Atom+Function         Bfn.  Coefficient  Atom+Function  
[...]
     Magnetic Dipole                               0.0000004008
     Total Oscillator Strength                     0.0000004018

     Occ.   34  a   ---  Virt.   37  a       -0.95980
     Occ.   34  a   ---  Virt.   42  a        0.26258
     Occ.   34  a   ---  Virt.   48  a       -0.05946
  ----------------------------------------------------------------------------
  Root   2 singlet a              0.163943838 a.u.                4.4611 eV 
  ----------------------------------------------------------------------------
     Transition Moments    X  0.00000   Y -0.05678   Z -0.00000
     Transition Moments   XX -0.00000  XY -0.00007  XZ -0.00000
     Transition Moments   YY  0.00000  YZ  0.73274  ZZ  0.00000
     Dipole Oscillator Strength                    0.0003523090
     Electric Quadrupole                           0.0000000126
     Magnetic Dipole                               0.0000017205
     Total Oscillator Strength                     0.0003540420

     Occ.   33  a   ---  Virt.   37  a        0.96021
     Occ.   33  a   ---  Virt.   42  a       -0.25475
     Occ.   33  a   ---  Virt.   48  a        0.06235
  ----------------------------------------------------------------------------
  Root   3 singlet a              0.168613068 a.u.                4.5882 eV 
  ----------------------------------------------------------------------------
     Transition Moments    X  0.00002   Y  0.00000   Z -2.07089
     Transition Moments   XX  0.53751  XY -0.00000  XZ -0.00005
     Transition Moments   YY -0.13494  YZ  0.00000  ZZ -1.60078
     Dipole Oscillator Strength                    0.4820745641
     Electric Quadrupole                           0.0000000305
     Magnetic Dipole                               0.0000000000
     Total Oscillator Strength                     0.4820745946

     Occ.   31  a   ---  Virt.   37  a        0.16963
     Occ.   31  a   ---  Virt.   42  a       -0.10366
     Occ.   35  a   ---  Virt.   38  a       -0.15974
     Occ.   36  a   ---  Virt.   37  a       -0.95359
  ----------------------------------------------------------------------------
  Root   4 singlet a              0.176823015 a.u.                4.8116 eV 
  ----------------------------------------------------------------------------
     Transition Moments    X -0.25664   Y  0.00000   Z  0.00003
     Transition Moments   XX -0.00001  XY -0.00000  XZ -1.03233
     Transition Moments   YY  0.00000  YZ  0.00000  ZZ -0.00011
     Dipole Oscillator Strength                    0.0077642177
     Electric Quadrupole                           0.0000000314
     Magnetic Dipole                               0.0000010349
     Total Oscillator Strength                     0.0077652839

     Occ.   31  a   ---  Virt.   38  a        0.06252
     Occ.   32  a   ---  Virt.   37  a        0.10289
     Occ.   35  a   ---  Virt.   37  a        0.53706
     Occ.   35  a   ---  Virt.   42  a        0.20363
     Occ.   36  a   ---  Virt.   38  a       -0.80236
  ----------------------------------------------------------------------------
  Root   5 singlet a              0.209050219 a.u.                5.6885 eV 
  ----------------------------------------------------------------------------
     Transition Moments    X  0.00000   Y -0.10662   Z -0.00000
     Transition Moments   XX  0.00000  XY  0.00003  XZ  0.00000
     Transition Moments   YY -0.00000  YZ -1.63602  ZZ -0.00000
     Dipole Oscillator Strength                    0.0015843316
     Electric Quadrupole                           0.0000001302
     Magnetic Dipole                               0.0000007120
     Total Oscillator Strength                     0.0015851739

     Occ.   31  a   ---  Virt.   39  a        0.16514
     Occ.   31  a   ---  Virt.   41  a       -0.08906
     Occ.   35  a   ---  Virt.   40  a       -0.06428
     Occ.   36  a   ---  Virt.   39  a        0.95380
     Occ.   36  a   ---  Virt.   41  a       -0.13502
     Occ.   36  a   ---  Virt.   45  a       -0.06108
     Occ.   36  a   ---  Virt.   52  a        0.07038
     Occ.   36  a   ---  Virt.   57  a        0.07514
     Occ.   36  a   ---  Virt.   64  a       -0.08013
  ----------------------------------------------------------------------------
  Root   6 singlet a              0.213746430 a.u.                5.8163 eV 
  ----------------------------------------------------------------------------
     Transition Moments    X -0.83602   Y -0.00000   Z -0.00004
     Transition Moments   XX -0.00002  XY  0.00000  XZ -2.16931
     Transition Moments   YY -0.00000  YZ  0.00000  ZZ  0.00029
     Dipole Oscillator Strength                    0.0995946397
     Electric Quadrupole                           0.0000002447
     Magnetic Dipole                               0.0000000629
     Total Oscillator Strength                     0.0995949473

     Occ.   31  a   ---  Virt.   38  a       -0.11602
     Occ.   35  a   ---  Virt.   37  a       -0.82309
     Occ.   35  a   ---  Virt.   42  a        0.10664
     Occ.   36  a   ---  Virt.   38  a       -0.52053
  ----------------------------------------------------------------------------
  Root   7 singlet a              0.239520253 a.u.                6.5177 eV 
  ----------------------------------------------------------------------------
     Transition Moments    X -0.00000   Y -0.00000   Z -0.00000
     Transition Moments   XX  0.00000  XY -0.59065  XZ  0.00000
     Transition Moments   YY -0.00000  YZ -0.00001  ZZ  0.00000
     Dipole Oscillator Strength                    0.0000000000
     Electric Quadrupole                           0.0000000255
     Magnetic Dipole                               0.0000001406
     Total Oscillator Strength                     0.0000001661

     Occ.   31  a   ---  Virt.   40  a       -0.10489
     Occ.   31  a   ---  Virt.   44  a        0.08442
     Occ.   31  a   ---  Virt.   46  a       -0.05571
     Occ.   35  a   ---  Virt.   39  a        0.18730
     Occ.   35  a   ---  Virt.   43  a       -0.05397
     Occ.   36  a   ---  Virt.   40  a       -0.91533
     Occ.   36  a   ---  Virt.   44  a        0.24574
     Occ.   36  a   ---  Virt.   46  a       -0.10160
     Occ.   36  a   ---  Virt.   53  a       -0.06023
     Occ.   36  a   ---  Virt.   62  a       -0.06157
     Occ.   36  a   ---  Virt.   66  a        0.08784
     Occ.   36  a   ---  Virt.   68  a        0.06818
  ----------------------------------------------------------------------------
  Root   8 singlet a              0.244349495 a.u.                6.6491 eV 
  ----------------------------------------------------------------------------
     Transition Moments    X -0.00000   Y -0.23835   Z -0.00000
     Transition Moments   XX  0.00000  XY -0.00002  XZ  0.00000
     Transition Moments   YY -0.00000  YZ -1.82280  ZZ  0.00000
     Dipole Oscillator Strength                    0.0092546045
     Electric Quadrupole                           0.0000002581
     Magnetic Dipole                               0.0000007857
     Total Oscillator Strength                     0.0092556483

     Occ.   31  a   ---  Virt.   39  a        0.12520
     Occ.   31  a   ---  Virt.   43  a        0.06854
     Occ.   31  a   ---  Virt.   47  a       -0.05940
     Occ.   35  a   ---  Virt.   40  a        0.05045
     Occ.   36  a   ---  Virt.   39  a       -0.12351
     Occ.   36  a   ---  Virt.   41  a       -0.88259
     Occ.   36  a   ---  Virt.   43  a        0.12844
     Occ.   36  a   ---  Virt.   45  a        0.35816
     Occ.   36  a   ---  Virt.   55  a        0.06201
     Occ.   36  a   ---  Virt.   60  a       -0.10139
     Occ.   36  a   ---  Virt.   64  a        0.06177
     Occ.   36  a   ---  Virt.   67  a       -0.05826

              Target root =      1
          Target symmetry = none
      Ground state energy =   -491.886370093667
        Excitation energy =      0.144495923002
     Excited state energy =   -491.741874170665

  stored tddft:energy   -491.74187417066457     

    8 smallest eigenvalue differences (eV) 
--------------------------------------------------------
  No. Spin  Occ  Vir  Irrep   E(Occ)    E(Vir)   E(Diff)
--------------------------------------------------------
    1    1   36   37 a        -0.313    -0.013     8.162
    2    1   36   38 a        -0.313     0.037     9.505
    3    1   35   37 a        -0.366    -0.013     9.619
    4    1   36   39 a        -0.313     0.044     9.720
    5    1   34   37 a        -0.370    -0.013     9.724
    6    1   33   37 a        -0.388    -0.013    10.214
    7    1   36   40 a        -0.313     0.065    10.278
    8    1   36   41 a        -0.313     0.067    10.330
--------------------------------------------------------

  Entering Davidson iterations
  Restricted triplet excited states

  Iter   NTrls   NConv    DeltaV     DeltaE      Time   
  ----  ------  ------  ---------  ---------  --------- 
    1      8       0     0.66E-01   0.10+100      311.6
    2     16       0     0.33E-01   0.17E-01      313.3
    3     24       0     0.14E+00   0.32E-01      314.6
    4     32       0     0.75E-01   0.34E-01      313.4
    5     40       0     0.55E-01   0.18E-01      314.6
    6     48       2     0.37E-01   0.58E-02      316.2
    7     54       3     0.45E-01   0.48E-02      292.1
    8     59       6     0.18E-01   0.17E-02      280.2
    9     61       6     0.51E-02   0.19E-03      238.6
   10     63       6     0.17E-02   0.12E-04      238.0
   11     65       6     0.55E-03   0.15E-05      238.2
   12     67       7     0.14E-03   0.12E-06      239.7
   13     68       8     0.64E-04   0.64E-08      225.4
  ----  ------  ------  ---------  ---------  --------- 
  Convergence criterion met

  Ground state a        -491.886370093667 a.u.

  ----------------------------------------------------------------------------
  Root   1 triplet a              0.118436178 a.u.                3.2228 eV 
  ----------------------------------------------------------------------------
     Transition Moments                    Spin forbidden
     Oscillator Strength                   Spin forbidden

     Occ.   28  a   ---  Virt.   42  a       -0.05100
     Occ.   31  a   ---  Virt.   37  a       -0.20335
     Occ.   35  a   ---  Virt.   38  a        0.10149
     Occ.   36  a   ---  Virt.   37  a        0.91919
     Occ.   36  a   ---  Virt.   42  a        0.29289
     Occ.   36  a   ---  Virt.   51  a       -0.05121
  ----------------------------------------------------------------------------
  Root   2 triplet a              0.125434551 a.u.                3.4132 eV 
  ----------------------------------------------------------------------------
     Transition Moments                    Spin forbidden
     Oscillator Strength                   Spin forbidden

     Occ.   34  a   ---  Virt.   37  a       -0.94990
     Occ.   34  a   ---  Virt.   42  a        0.28475
     Occ.   34  a   ---  Virt.   48  a       -0.08637
     Occ.   34  a   ---  Virt.   51  a       -0.06295
  ----------------------------------------------------------------------------
  Root   3 triplet a              0.130078765 a.u.                3.5396 eV 
  ----------------------------------------------------------------------------
     Transition Moments                    Spin forbidden
     Oscillator Strength                   Spin forbidden

     Occ.   32  a   ---  Virt.   37  a        0.90503
     Occ.   32  a   ---  Virt.   42  a       -0.30342
     Occ.   32  a   ---  Virt.   48  a        0.10359
     Occ.   32  a   ---  Virt.   51  a        0.07609
     Occ.   35  a   ---  Virt.   37  a       -0.25398
  ----------------------------------------------------------------------------
  Root   4 triplet a              0.144958105 a.u.                3.9445 eV 
  ----------------------------------------------------------------------------
     Transition Moments                    Spin forbidden
     Oscillator Strength                   Spin forbidden

     Occ.   33  a   ---  Virt.   37  a       -0.95391
     Occ.   33  a   ---  Virt.   42  a        0.27084
     Occ.   33  a   ---  Virt.   48  a       -0.08309
     Occ.   33  a   ---  Virt.   51  a       -0.05667
  ----------------------------------------------------------------------------
  Root   5 triplet a              0.147633174 a.u.                4.0173 eV 
  ----------------------------------------------------------------------------
     Transition Moments                    Spin forbidden
     Oscillator Strength                   Spin forbidden

     Occ.   28  a   ---  Virt.   38  a        0.09322
     Occ.   31  a   ---  Virt.   38  a        0.08574
     Occ.   36  a   ---  Virt.   38  a       -0.98354
     Occ.   36  a   ---  Virt.   56  a        0.06330
  ----------------------------------------------------------------------------
  Root   6 triplet a              0.166642821 a.u.                4.5346 eV 
  ----------------------------------------------------------------------------
     Transition Moments                    Spin forbidden
     Oscillator Strength                   Spin forbidden

     Occ.   28  a   ---  Virt.   61  a       -0.05549
     Occ.   31  a   ---  Virt.   37  a       -0.05213
     Occ.   32  a   ---  Virt.   38  a        0.12531
     Occ.   35  a   ---  Virt.   38  a        0.94507
     Occ.   35  a   ---  Virt.   56  a       -0.08618
     Occ.   36  a   ---  Virt.   37  a       -0.17397
     Occ.   36  a   ---  Virt.   42  a        0.13475
  ----------------------------------------------------------------------------
  Root   7 triplet a              0.171123225 a.u.                4.6565 eV 
  ----------------------------------------------------------------------------
     Transition Moments                    Spin forbidden
     Oscillator Strength                   Spin forbidden

     Occ.   28  a   ---  Virt.   38  a        0.06855
     Occ.   31  a   ---  Virt.   38  a       -0.10369
     Occ.   32  a   ---  Virt.   37  a        0.23986
     Occ.   35  a   ---  Virt.   37  a        0.90734
     Occ.   35  a   ---  Virt.   42  a        0.29267
     Occ.   35  a   ---  Virt.   51  a       -0.09503
  ----------------------------------------------------------------------------
  Root   8 triplet a              0.195924706 a.u.                5.3314 eV 
  ----------------------------------------------------------------------------
     Transition Moments                    Spin forbidden
     Oscillator Strength                   Spin forbidden

     Occ.   22  a   ---  Virt.   37  a        0.05359
     Occ.   28  a   ---  Virt.   37  a       -0.15001
     Occ.   31  a   ---  Virt.   37  a        0.39187
     Occ.   31  a   ---  Virt.   42  a       -0.06750
     Occ.   35  a   ---  Virt.   38  a       -0.13885
     Occ.   36  a   ---  Virt.   37  a       -0.17696
     Occ.   36  a   ---  Virt.   42  a        0.85808
     Occ.   36  a   ---  Virt.   48  a       -0.07448
     Occ.   36  a   ---  Virt.   59  a       -0.09982

              Target root =      1
          Target symmetry = none
      Ground state energy =   -491.886370093667
        Excitation energy =      0.118436177641
     Excited state energy =   -491.767933916026

  stored tddft:energy   -491.76793391602564     

 Task  times  cpu:     6934.2s     wall:     8104.4s


                                NWChem Input Module
                                -------------------


 Summary of allocated global arrays
-----------------------------------
  No active global arrays


MA_summarize_allocated_blocks: starting scan ...
heap block 'gridpts', handle 65, address 0x12711968:
	type of elements:		double precision
	number of elements:		5242760196
	address of client space:	0x127119c0
	index for client space:		10518159
	total number of bytes:		41942081664
MA_summarize_allocated_blocks: scan completed: 1 heap block, 0 stack blocks
MA usage statistics:

	allocation statistics:
					      heap	     stack
					      ----	     -----
	current number of blocks	         1	         0
	maximum number of blocks	        18	        53
	current total bytes		41942081664	         0
	maximum total bytes		41943978672	  47441752
	maximum total K-bytes		  41943979	     47442
	maximum total M-bytes		     41944	        48


                                     CITATION
                                     --------
                Please cite the following reference when publishing
                           results obtained with NWChem:

          E. Apra, E. J. Bylaska, W. A. de Jong, N. Govind, K. Kowalski,
       T. P. Straatsma, M. Valiev, H. J. J. van Dam, Y. Alexeev, J. Anchell,
       V. Anisimov, F. W. Aquino, R. Atta-Fynn, J. Autschbach, N. P. Bauman,
     J. C. Becca, D. E. Bernholdt, K. Bhaskaran-Nair, S. Bogatko, P. Borowski,
         J. Boschen, J. Brabec, A. Bruner, E. Cauet, Y. Chen, G. N. Chuev,
      C. J. Cramer, J. Daily, M. J. O. Deegan, T. H. Dunning Jr., M. Dupuis,
   K. G. Dyall, G. I. Fann, S. A. Fischer, A. Fonari, H. Fruchtl, L. Gagliardi,
      J. Garza, N. Gawande, S. Ghosh, K. Glaesemann, A. W. Gotz, J. Hammond,
       V. Helms, E. D. Hermes, K. Hirao, S. Hirata, M. Jacquelin, L. Jensen,
   B. G. Johnson, H. Jonsson, R. A. Kendall, M. Klemm, R. Kobayashi, V. Konkov,
      S. Krishnamoorthy, M. Krishnan, Z. Lin, R. D. Lins, R. J. Littlefield,
      A. J. Logsdail, K. Lopata, W. Ma, A. V. Marenich, J. Martin del Campo,
   D. Mejia-Rodriguez, J. E. Moore, J. M. Mullin, T. Nakajima, D. R. Nascimento,
    J. A. Nichols, P. J. Nichols, J. Nieplocha, A. Otero-de-la-Roza, B. Palmer,
    A. Panyala, T. Pirojsirikul, B. Peng, R. Peverati, J. Pittner, L. Pollack,
   R. M. Richard, P. Sadayappan, G. C. Schatz, W. A. Shelton, D. W. Silverstein,
   D. M. A. Smith, T. A. Soares, D. Song, M. Swart, H. L. Taylor, G. S. Thomas,
            V. Tipparaju, D. G. Truhlar, K. Tsemekhman, T. Van Voorhis,
      A. Vazquez-Mayagoitia, P. Verma, O. Villa, A. Vishnu, K. D. Vogiatzis,
        D. Wang, J. H. Weare, M. J. Williamson, T. L. Windus, K. Wolinski,
        A. T. Wong, Q. Wu, C. Yang, Q. Yu, M. Zacharias, Z. Zhang, Y. Zhao,
                                and R. J. Harrison
                        "NWChem: Past, present, and future
                         J. Chem. Phys. 152, 184102 (2020)
                               doi:10.1063/5.0004997

                                      AUTHORS
                                      -------
  E. Apra, E. J. Bylaska, N. Govind, K. Kowalski, M. Valiev, D. Mejia-Rodriguez,
       A. Kunitsa, N. P. Bauman, A. Panyala, W. A. de Jong, T. P. Straatsma,
   H. J. J. van Dam, D. Wang, T. L. Windus, J. Hammond, J. Autschbach, A. Woods,
    K. Bhaskaran-Nair, J. Brabec, K. Lopata, S. A. Fischer, S. Krishnamoorthy,
     M. Jacquelin, W. Ma, M. Klemm, O. Villa, Y. Chen, V. Anisimov, F. Aquino,
     S. Hirata, M. T. Hackler, E. Hermes, L. Jensen, J. E. Moore, J. C. Becca,
      V. Konjkov, T. Risthaus, M. Malagoli, A. Marenich, A. Otero-de-la-Roza,
        J. Mullin, P. Nichols, R. Peverati, J. Pittner, Y. Zhao, P.-D. Fan,
        A. Fonari, M. J. Williamson, R. J. Harrison, J. R. Rehr, M. Dupuis,
     D. Silverstein, D. M. A. Smith, J. Nieplocha, V. Tipparaju, M. Krishnan,
     B. E. Van Kuiken, A. Vazquez-Mayagoitia, M. Swart, Q. Wu, T. Van Voorhis,
     A. A. Auer, M. Nooijen, L. D. Crosby, E. Brown, G. Cisneros, G. I. Fann,
   H. Fruchtl, J. Garza, K. Hirao, R. A. Kendall, J. A. Nichols, K. Tsemekhman,
    K. Wolinski, J. Anchell, D. E. Bernholdt, P. Borowski, T. Clark, D. Clerc,
   H. Dachsel, M. J. O. Deegan, K. Dyall, D. Elwood, E. Glendening, M. Gutowski,
   A. C. Hess, J. Jaffe, B. G. Johnson, J. Ju, R. Kobayashi, R. Kutteh, Z. Lin,
   R. Littlefield, X. Long, B. Meng, T. Nakajima, S. Niu, L. Pollack, M. Rosing,
   K. Glaesemann, G. Sandrone, M. Stave, H. Taylor, G. Thomas, J. H. van Lenthe,
                               A. T. Wong, Z. Zhang.

 Total times  cpu:     6934.2s     wall:     8104.9s
