 argument  1 = /home/aditisingh4812/nw_chem/nwchem-run/nwchem-run/tddft/closed/lcwpbe/geom-MOL/phthalazine.nw
                                         
                                         


             Northwest Computational Chemistry Package (NWChem) 7.2.3
             --------------------------------------------------------


                    Environmental Molecular Sciences Laboratory
                       Pacific Northwest National Laboratory
                                Richland, WA 99352

                              Copyright (c) 1994-2022
                       Pacific Northwest National Laboratory
                            Battelle Memorial Institute

             NWChem is an open-source computational chemistry package
                        distributed under the terms of the
                      Educational Community License (ECL) 2.0
             A copy of the license is included with this distribution
                              in the LICENSE.TXT file

                                  ACKNOWLEDGMENT
                                  --------------

            This software and its documentation were developed at the
            EMSL at Pacific Northwest National Laboratory, a multiprogram
            national laboratory, operated for the U.S. Department of Energy
            by Battelle under Contract Number DE-AC05-76RL01830. Support
            for this work was provided by the Department of Energy Office
            of Biological and Environmental Research, Office of Basic
            Energy Sciences, and the Office of Advanced Scientific Computing.


           Job information
           ---------------

    hostname        = p20
    program         = /home/aditisingh4812/nw_chem/nwchem-7.2.3-release.revision-d690e065-srconly.2024-08-27/nwchem-7.2.3/bin/LINUX64/nwchem
    date            = Wed Apr  9 02:16:26 2025

    compiled        = Mon_Apr_07_18:51:54_2025
    source          = /home/aditisingh4812/nw_chem/nwchem-7.2.3-release.revision-d690e065-srconly.2024-08-27/nwchem-7.2.3
    nwchem branch   = 7.2.3
    nwchem revision = d690e065
    ga revision     = 5.8.0
    use scalapack   = F
    input           = /home/aditisingh4812/nw_chem/nwchem-run/nwchem-run/tddft/closed/lcwpbe/geom-MOL/phthalazine.nw
    prefix          = phthalazine.
    data base       = ./phthalazine.db
    status          = startup
    nproc           =       48
    time left       =     -1s



           Memory information
           ------------------

    heap     = ********** doubles = 100000.0 Mbytes
    stack    = ********** doubles = 100000.0 Mbytes
    global   = ********** doubles = 100000.0 Mbytes (distinct from heap & stack)
    total    = ********** doubles = 300000.0 Mbytes
    verify   = yes
    hardfail = no 


           Directory information
           ---------------------

  0 permanent = .
  0 scratch   = .




                                NWChem Input Module
                                -------------------



 Scaling coordinates for geometry "geometry" by  1.889725989
 (inverse scale =  0.529177249)



                             Geometry "geometry" -> ""
                             -------------------------

 Output coordinates in angstroms (scale by  1.889725989 to convert to a.u.)

  No.       Tag          Charge          X              Y              Z
 ---- ---------------- ---------- -------------- -------------- --------------
    1 C                    6.0000    -0.70094500     0.00000000    -0.01086874
    2 C                    6.0000     0.70094500     0.00000000    -0.01086874
    3 C                    6.0000    -1.40489400     0.00000000     1.20920426
    4 C                    6.0000     1.40489400     0.00000000     1.20920426
    5 C                    6.0000    -0.70650700     0.00000000     2.39375726
    6 C                    6.0000     0.70650700     0.00000000     2.39375726
    7 C                    6.0000    -1.32191700     0.00000000    -1.28589974
    8 C                    6.0000     1.32191700     0.00000000    -1.28589974
    9 N                    7.0000    -0.68568300     0.00000000    -2.43081374
   10 N                    7.0000     0.68568300     0.00000000    -2.43081374
   11 H                    1.0000    -2.48400800     0.00000000     1.20155226
   12 H                    1.0000     2.48400800     0.00000000     1.20155226
   13 H                    1.0000    -1.23583300     0.00000000     3.33254026
   14 H                    1.0000     1.23583300     0.00000000     3.33254026
   15 H                    1.0000    -2.40174000     0.00000000    -1.35555474
   16 H                    1.0000     2.40174000     0.00000000    -1.35555474

      Atomic Mass 
      ----------- 

      C                 12.000000
      N                 14.003070
      H                  1.007825


 Effective nuclear repulsion energy (a.u.)     464.8643592469

            Nuclear Dipole moment (a.u.) 
            ----------------------------
        X                 Y               Z
 ---------------- ---------------- ----------------
     0.0000000000     0.0000000000    -0.0000000000


            XYZ format geometry
            -------------------
    16
 geometry
 C                    -0.70094500     0.00000000    -0.01086874
 C                     0.70094500     0.00000000    -0.01086874
 C                    -1.40489400     0.00000000     1.20920426
 C                     1.40489400     0.00000000     1.20920426
 C                    -0.70650700     0.00000000     2.39375726
 C                     0.70650700     0.00000000     2.39375726
 C                    -1.32191700     0.00000000    -1.28589974
 C                     1.32191700     0.00000000    -1.28589974
 N                    -0.68568300     0.00000000    -2.43081374
 N                     0.68568300     0.00000000    -2.43081374
 H                    -2.48400800     0.00000000     1.20155226
 H                     2.48400800     0.00000000     1.20155226
 H                    -1.23583300     0.00000000     3.33254026
 H                     1.23583300     0.00000000     3.33254026
 H                    -2.40174000     0.00000000    -1.35555474
 H                     2.40174000     0.00000000    -1.35555474

 ==============================================================================
                                internuclear distances
 ------------------------------------------------------------------------------
       center one      |      center two      | atomic units |  angstroms
 ------------------------------------------------------------------------------
    2 C                |   1 C                |     2.64919  |     1.40189
    3 C                |   1 C                |     2.66185  |     1.40859
    4 C                |   2 C                |     2.66185  |     1.40859
    5 C                |   3 C                |     2.59857  |     1.37510
    6 C                |   4 C                |     2.59857  |     1.37510
    6 C                |   5 C                |     2.67021  |     1.41301
    7 C                |   1 C                |     2.68002  |     1.41821
    8 C                |   2 C                |     2.68002  |     1.41821
    9 N                |   7 C                |     2.47520  |     1.30982
   10 N                |   8 C                |     2.47520  |     1.30982
   10 N                |   9 N                |     2.59151  |     1.37137
   11 H                |   3 C                |     2.03928  |     1.07914
   12 H                |   4 C                |     2.03928  |     1.07914
   13 H                |   5 C                |     2.03661  |     1.07773
   14 H                |   6 C                |     2.03661  |     1.07773
   15 H                |   7 C                |     2.04481  |     1.08207
   16 H                |   8 C                |     2.04481  |     1.08207
 ------------------------------------------------------------------------------
                         number of included internuclear distances:         17
 ==============================================================================



 ==============================================================================
                                 internuclear angles
 ------------------------------------------------------------------------------
        center 1       |       center 2       |       center 3       |  degrees
 ------------------------------------------------------------------------------
    2 C                |   1 C                |   3 C                |   119.98
    2 C                |   1 C                |   7 C                |   115.97
    3 C                |   1 C                |   7 C                |   124.05
    1 C                |   2 C                |   4 C                |   119.98
    1 C                |   2 C                |   8 C                |   115.97
    4 C                |   2 C                |   8 C                |   124.05
    1 C                |   3 C                |   5 C                |   119.49
    1 C                |   3 C                |  11 H                |   119.58
    5 C                |   3 C                |  11 H                |   120.93
    2 C                |   4 C                |   6 C                |   119.49
    2 C                |   4 C                |  12 H                |   119.58
    6 C                |   4 C                |  12 H                |   120.93
    3 C                |   5 C                |   6 C                |   120.52
    3 C                |   5 C                |  13 H                |   120.06
    6 C                |   5 C                |  13 H                |   119.42
    4 C                |   6 C                |   5 C                |   120.52
    4 C                |   6 C                |  14 H                |   120.06
    5 C                |   6 C                |  14 H                |   119.42
    1 C                |   7 C                |   9 N                |   124.97
    1 C                |   7 C                |  15 H                |   119.66
    9 N                |   7 C                |  15 H                |   115.37
    2 C                |   8 C                |  10 N                |   124.97
    2 C                |   8 C                |  16 H                |   119.66
   10 N                |   8 C                |  16 H                |   115.37
    7 C                |   9 N                |  10 N                |   119.06
    8 C                |  10 N                |   9 N                |   119.06
 ------------------------------------------------------------------------------
                            number of included internuclear angles:         26
 ==============================================================================





 Summary of "ao basis" -> "" (cartesian)
 ------------------------------------------------------------------------------
       Tag                 Description            Shells   Functions and Types
 ---------------- ------------------------------  ------  ---------------------
 *                         def2-TZVPD                 on all atoms 


  pbe96 is a nonlocal functional; adding pw91lda local functional. 

                                 NWChem DFT Module
                                 -----------------


                      Basis "ao basis" -> "ao basis" (cartesian)
                      -----
  C (Carbon)
  ----------
            Exponent  Coefficients 
       -------------- ---------------------------------------------------------
  1 S  1.35753497E+04  0.000222
  1 S  2.03523337E+03  0.001723
  1 S  4.63225624E+02  0.008926
  1 S  1.31200196E+02  0.035728
  1 S  4.28530159E+01  0.110763
  1 S  1.55841858E+01  0.242956

  2 S  6.20671385E+00  0.414403
  2 S  2.57648965E+00  0.237450

  3 S  5.76963394E-01  1.000000

  4 S  2.29728314E-01  1.000000

  5 S  9.51644400E-02  1.000000

  6 S  4.84754014E-02  1.000000

  7 P  3.46972322E+01  0.005333
  7 P  7.95826228E+00  0.035864
  7 P  2.37808269E+00  0.142159
  7 P  8.14332082E-01  0.342705

  8 P  2.88875473E-01  1.000000

  9 P  1.00568237E-01  1.000000

 10 D  1.09700000E+00  1.000000

 11 D  3.18000000E-01  1.000000

 12 D  9.09853364E-02  1.000000

 13 F  7.61000000E-01  1.000000

  N (Nitrogen)
  ------------
            Exponent  Coefficients 
       -------------- ---------------------------------------------------------
  1 S  1.97308006E+04  0.000219
  1 S  2.95789587E+03  0.001696
  1 S  6.73221336E+02  0.008795
  1 S  1.90682495E+02  0.035359
  1 S  6.22954419E+01  0.110958
  1 S  2.26541612E+01  0.249830

  2 S  8.97914774E+00  0.406239
  2 S  3.68630024E+00  0.243382

  3 S  8.46600768E-01  1.000000

  4 S  3.36471338E-01  1.000000

  5 S  1.36476537E-01  1.000000

  6 S  6.84416058E-02  1.000000

  7 P  4.92003805E+01  0.005555
  7 P  1.13467905E+01  0.038052
  7 P  3.42739724E+00  0.149537
  7 P  1.17855251E+00  0.349493

  8 P  4.16422050E-01  1.000000

  9 P  1.42608260E-01  1.000000

 10 D  1.65400000E+00  1.000000

 11 D  4.69000000E-01  1.000000

 12 D  1.28296421E-01  1.000000

 13 F  1.09300000E+00  1.000000

  H (Hydrogen)
  ------------
            Exponent  Coefficients 
       -------------- ---------------------------------------------------------
  1 S  3.40613410E+01  0.006025
  1 S  5.12357460E+00  0.045021
  1 S  1.16466260E+00  0.201897

  2 S  3.27230410E-01  1.000000

  3 S  1.03072410E-01  1.000000

  4 P  8.00000000E-01  1.000000

  5 P  9.57741296E-02  1.000000



 Summary of "ao basis" -> "ao basis" (cartesian)
 ------------------------------------------------------------------------------
       Tag                 Description            Shells   Functions and Types
 ---------------- ------------------------------  ------  ---------------------
 C                         def2-TZVPD               13       43   6s3p3d1f
 N                         def2-TZVPD               13       43   6s3p3d1f
 H                         def2-TZVPD                5        9   3s2p




 Summary of "ao basis" -> "ao basis" (cartesian)
 ------------------------------------------------------------------------------
       Tag                 Description            Shells   Functions and Types
 ---------------- ------------------------------  ------  ---------------------
 C                         def2-TZVPD               13       43   6s3p3d1f
 N                         def2-TZVPD               13       43   6s3p3d1f
 H                         def2-TZVPD                5        9   3s2p


  int_init: cando_txs set to always be  F
  Caching 1-el integrals 

            General Information
            -------------------
          SCF calculation type: DFT
          Wavefunction type:  closed shell.
          No. of atoms     :    16
          No. of electrons :    68
           Alpha electrons :    34
            Beta electrons :    34
          Charge           :     0
          Spin multiplicity:     1
          Use of symmetry is: off; symmetry adaption is: off
          Maximum number of iterations:  50
          AO basis - number of functions:   484
                     number of shells:   160
          Convergence on energy requested:  1.00D-06
          Convergence on density requested:  1.00D-05
          Convergence on gradient requested:  5.00D-04

              XC Information
              --------------
                     Hartree-Fock (Exact) Exchange  1.000          
                     LC-wPBE(h)Exchange Functional  1.000          
            Perdew 1991 LDA Correlation Functional  1.000 local    
           PerdewBurkeErnz. Correlation Functional  1.000 non-local

           Range-Separation Parameters        
           ---------------------------
           Alpha           :  0.00
           Beta            :  1.00
           Gamma           :  0.27
           Short-Range HF  :     F

             Grid Information
             ----------------
          Grid used for XC integration:  xfine     
          Radial quadrature: Mura-Knowles        
          Angular quadrature: Lebedev. 
          Tag              B.-S. Rad. Rad. Pts. Rad. Cut. Ang. Pts.
          ---              ---------- --------- --------- ---------
          C                   0.70      100          14.0      1454
          N                   0.65      100          15.0      1454
          H                   0.35      100          16.0      1202
          Grid pruning is: on 
          Number of quadrature shells:  1600
          Spatial weights used:  Erf1

          Convergence Information
          -----------------------
          Convergence aids based upon iterative change in 
          total energy or number of iterations. 
          Levelshifting, if invoked, occurs when the 
          HOMO/LUMO gap drops below (HL_TOL):  1.00D-02
          DIIS, if invoked, will attempt to extrapolate 
          using up to (NFOCK): 10 stored Fock matrices.

                    Damping( 0%)  Levelshifting(0.5)       DIIS
                  --------------- ------------------- ---------------
          dE  on:    start            ASAP                start   
          dE off:    2 iters         50 iters            50 iters 


      Screening Tolerance Information
      -------------------------------
          Density screening/tol_rho:  1.00D-10
          AO Gaussian exp screening on grid/accAOfunc:  14
          CD Gaussian exp screening on grid/accCDfunc:  20
          XC Gaussian exp screening on grid/accXCfunc:  20
          Schwarz screening/accCoul:  1.00D-08

  
  CAM type calculations without CDFIT are
  only available with the direct option.
  Forcing Direct SCF
  

 WARNING : Found    15 linear dependencies 
 S eigenvalue threshold:     1.00000E-05
 Smallest S eigenvalue :     1.66798E-08
 Largest  S eigenvalue :     9.19208E-06


 !! The overlap matrix has  15 vectors deemed linearly dependent with
    eigenvalues:
 1.67D-08 1.14D-07 3.79D-07 5.08D-07 7.82D-07 8.24D-07 1.63D-06 1.67D-06
 2.36D-06 2.43D-06 3.43D-06 3.55D-06 5.94D-06 7.47D-06 9.19D-06


      Superposition of Atomic Density Guess
      -------------------------------------

 Sum of atomic energies:        -412.99261380

      Non-variational initial energy
      ------------------------------

 Total energy =    -420.017138
 1-e energy   =   -1477.857164
 2-e energy   =     592.975667
 HOMO         =      -0.284144
 LUMO         =      -0.068004

  WARNING: movecs_in_org=atomic not equal to movecs_in=./phthalazine.movecs
   Time after variat. SCF:     29.3
   Time prior to 1st pass:     29.3

 Grid_pts file          = ./phthalazine.gridpts.00
 Record size in doubles =  12289        No. of grid_pts per rec  =   3070
 Max. records in memory =     19        Max. recs in file   =  21109390

 Grid integrated density:      67.977575212605
 Requested integration accuracy:   0.10E-07

           Memory utilization after 1st SCF pass: 
           Heap Space remaining (MW):     7864.20          7864201570
          Stack Space remaining (MW):    13107.20         13107197180

   convergence    iter        energy       DeltaE   RMS-Dens  Diis-err    time
 ---------------- ----- ----------------- --------- --------- ---------  ------
 d= 0,ls=0.0,diis     1   -415.7829816824 -8.81D+02  2.08D+02  7.06D+03    83.1
 Grid integrated density:      68.000036339619
 Requested integration accuracy:   0.10E-07
 d= 0,ls=0.0,diis     2   -399.3300454457  1.65D+01  1.82D+02  1.11D+02   144.7
 Grid integrated density:      68.000019586512
 Requested integration accuracy:   0.10E-07
 d= 0,ls=0.0,diis     3   -386.7060804480  1.26D+01  1.43D+01  1.76D+02   209.4
 Grid integrated density:      68.000027595800
 Requested integration accuracy:   0.10E-07
 d= 0,ls=0.0,diis     4   -376.5563269808  1.01D+01  8.34D+00  1.59D+02   269.1
 Grid integrated density:      68.000022026990
 Requested integration accuracy:   0.10E-07
 d= 0,ls=0.0,diis     5   -398.6231133472 -2.21D+01  9.36D+01  8.00D+01   329.5
 Grid integrated density:      68.000001290169
 Requested integration accuracy:   0.10E-07
 d= 0,ls=0.0,diis     6   -417.1296890811 -1.85D+01  1.91D-01  4.39D+00   387.6
 Grid integrated density:      68.000001432753
 Requested integration accuracy:   0.10E-07
 d= 0,ls=0.0,diis     7   -417.3458063052 -2.16D-01  1.09D-02  3.04D+00   449.8
 Grid integrated density:      68.000001336600
 Requested integration accuracy:   0.10E-07
 d= 0,ls=0.0,diis     8   -417.6838715973 -3.38D-01  2.86D-03  6.33D-02   508.4
 Grid integrated density:      68.000001327017
 Requested integration accuracy:   0.10E-07
  Resetting Diis
 d= 0,ls=0.0,diis     9   -417.6909427365 -7.07D-03  1.14D-03  8.35D-03   563.5
 d= 0,ls=0.0,diis    10   -417.6919067772 -9.64D-04  1.83D-03  1.27D-03   628.1
 d= 0,ls=0.0,diis    11   -417.6919456547 -3.89D-05  1.16D-04  1.26D-03   684.6
 d= 0,ls=0.0,diis    12   -417.6920905994 -1.45D-04  1.19D-04  2.76D-05   740.7
 d= 0,ls=0.0,diis    13   -417.6920952120 -4.61D-06  4.35D-05  1.57D-05   797.4
 d= 0,ls=0.0,diis    14   -417.6920976786 -2.47D-06  5.20D-06  6.09D-07   861.0
 d= 0,ls=0.0,diis    15   -417.6920979733 -2.95D-07  6.14D-06  1.46D-07   915.9


         Total DFT energy =     -417.692097973304
      One electron energy =    -1484.865964991541
           Coulomb energy =      661.383379350404
    Exchange-Corr. energy =      -59.073871579043
 Nuclear repulsion energy =      464.864359246876

 Numeric. integr. density =       68.000000168678

     Total iterative time =    886.5s



                       DFT Final Molecular Orbital Analysis
                       ------------------------------------

 Vector    1  Occ=2.000000D+00  E=-1.416988D+01
              MO Center=  4.2D-01,  2.1D-12, -2.4D+00, r^2= 3.1D-01
   Bfn.  Coefficient  Atom+Function         Bfn.  Coefficient  Atom+Function  
  ----- ------------  ---------------      ----- ------------  ---------------
   389      0.556090  10 N  s               388      0.403551  10 N  s         
   346      0.272623   9 N  s               345      0.197846   9 N  s         
   391     -0.098579  10 N  s               390      0.088695  10 N  s         
   348     -0.047961   9 N  s               347      0.043751   9 N  s         

 Vector    2  Occ=2.000000D+00  E=-1.416979D+01
              MO Center= -4.2D-01,  7.9D-12, -2.4D+00, r^2= 3.1D-01
   Bfn.  Coefficient  Atom+Function         Bfn.  Coefficient  Atom+Function  
  ----- ------------  ---------------      ----- ------------  ---------------
   346      0.556107   9 N  s               345      0.403558   9 N  s         
   389     -0.272657  10 N  s               388     -0.197858  10 N  s         
   348     -0.099058   9 N  s               347      0.088353   9 N  s         
   391      0.048935  10 N  s               390     -0.043050  10 N  s         

 Vector    3  Occ=2.000000D+00  E=-1.008958D+01
              MO Center=  5.8D-01,  5.4D-14, -1.3D+00, r^2= 1.4D+00
   Bfn.  Coefficient  Atom+Function         Bfn.  Coefficient  Atom+Function  
  ----- ------------  ---------------      ----- ------------  ---------------
   303      0.508458   8 C  s               302      0.397032   8 C  s         
   260     -0.317269   7 C  s               259     -0.247745   7 C  s         
   304      0.087115   8 C  s               305     -0.086469   8 C  s         
   261     -0.054199   7 C  s               262      0.053598   7 C  s         

 Vector    4  Occ=2.000000D+00  E=-1.008956D+01
              MO Center= -5.8D-01, -6.0D-13, -1.3D+00, r^2= 1.4D+00
   Bfn.  Coefficient  Atom+Function         Bfn.  Coefficient  Atom+Function  
  ----- ------------  ---------------      ----- ------------  ---------------
   260      0.508462   7 C  s               259      0.397029   7 C  s         
   303      0.317275   8 C  s               302      0.247739   8 C  s         
   261      0.087437   7 C  s               262     -0.087190   7 C  s         
   304      0.054715   8 C  s               305     -0.054753   8 C  s         

 Vector    5  Occ=2.000000D+00  E=-1.008088D+01
              MO Center=  6.6D-02,  2.8D-13, -1.1D-02, r^2= 5.2D-01
   Bfn.  Coefficient  Atom+Function         Bfn.  Coefficient  Atom+Function  
  ----- ------------  ---------------      ----- ------------  ---------------
    45      0.443022   2 C  s                 2      0.403241   1 C  s         
    44      0.345950   2 C  s                 1      0.314884   1 C  s         
    46      0.076132   2 C  s                47     -0.075509   2 C  s         
     3      0.069366   1 C  s                 4     -0.068854   1 C  s         

 Vector    6  Occ=2.000000D+00  E=-1.008050D+01
              MO Center= -6.6D-02, -1.3D-12, -1.0D-02, r^2= 5.2D-01
   Bfn.  Coefficient  Atom+Function         Bfn.  Coefficient  Atom+Function  
  ----- ------------  ---------------      ----- ------------  ---------------
     2      0.443050   1 C  s                45     -0.403275   2 C  s         
     1      0.345987   1 C  s                44     -0.314927   2 C  s         
     3      0.075395   1 C  s                 4     -0.074192   1 C  s         
    46     -0.068556   2 C  s                47      0.067406   2 C  s         

 Vector    7  Occ=2.000000D+00  E=-1.007434D+01
              MO Center=  3.1D-02, -4.7D-13,  2.2D+00, r^2= 9.0D-01
   Bfn.  Coefficient  Atom+Function         Bfn.  Coefficient  Atom+Function  
  ----- ------------  ---------------      ----- ------------  ---------------
   217      0.401353   6 C  s               174      0.385249   5 C  s         
   216      0.313388   6 C  s               173      0.300813   5 C  s         
   131      0.160200   4 C  s                88      0.155165   3 C  s         
   130      0.125086   4 C  s                87      0.121154   3 C  s         
   218      0.069216   6 C  s               219     -0.069276   6 C  s         

 Vector    8  Occ=2.000000D+00  E=-1.007407D+01
              MO Center= -4.1D-02,  1.5D-13,  2.0D+00, r^2= 1.4D+00
   Bfn.  Coefficient  Atom+Function         Bfn.  Coefficient  Atom+Function  
  ----- ------------  ---------------      ----- ------------  ---------------
   174      0.347158   5 C  s               217     -0.335124   6 C  s         
   173      0.271073   5 C  s               216     -0.261677   6 C  s         
    88      0.257713   3 C  s               131     -0.244874   4 C  s         
    87      0.201232   3 C  s               130     -0.191206   4 C  s         
   175      0.059426   5 C  s               176     -0.059082   5 C  s         

 Vector    9  Occ=2.000000D+00  E=-1.007363D+01
              MO Center= -1.2D-02,  6.2D-13,  1.4D+00, r^2= 2.0D+00
   Bfn.  Coefficient  Atom+Function         Bfn.  Coefficient  Atom+Function  
  ----- ------------  ---------------      ----- ------------  ---------------
    88      0.394069   3 C  s               131      0.392384   4 C  s         
    87      0.307713   3 C  s               130      0.306397   4 C  s         
   174     -0.163130   5 C  s               217     -0.152643   6 C  s         
   173     -0.127382   5 C  s               216     -0.119194   6 C  s         
    89      0.067658   3 C  s                90     -0.067172   3 C  s         

 Vector   10  Occ=2.000000D+00  E=-1.007356D+01
              MO Center=  2.2D-02, -7.3D-13,  1.6D+00, r^2= 1.8D+00
   Bfn.  Coefficient  Atom+Function         Bfn.  Coefficient  Atom+Function  
  ----- ------------  ---------------      ----- ------------  ---------------
   131     -0.345667   4 C  s                88      0.336589   3 C  s         
   130     -0.269930   4 C  s                87      0.262841   3 C  s         
   174     -0.252578   5 C  s               217      0.250299   6 C  s         
   173     -0.197239   5 C  s               216      0.195459   6 C  s         
   132     -0.059095   4 C  s                89      0.057534   3 C  s         

 Vector   11  Occ=2.000000D+00  E=-1.085134D+00
              MO Center=  8.0D-05, -1.2D-10, -2.0D+00, r^2= 1.2D+00
   Bfn.  Coefficient  Atom+Function         Bfn.  Coefficient  Atom+Function  
  ----- ------------  ---------------      ----- ------------  ---------------
   348      0.236274   9 N  s               391      0.236297  10 N  s         
   347      0.200898   9 N  s               390      0.200924  10 N  s         
   346     -0.136925   9 N  s               389     -0.136939  10 N  s         
   261      0.109413   7 C  s               304      0.109429   8 C  s         
   262      0.091716   7 C  s               305      0.091731   8 C  s         

 Vector   12  Occ=2.000000D+00  E=-9.746263D-01
              MO Center=  6.1D-05,  1.8D-10,  8.5D-01, r^2= 2.7D+00
   Bfn.  Coefficient  Atom+Function         Bfn.  Coefficient  Atom+Function  
  ----- ------------  ---------------      ----- ------------  ---------------
     3      0.153816   1 C  s                46      0.153830   2 C  s         
     4      0.147600   1 C  s                47      0.147615   2 C  s         
    89      0.136641   3 C  s               132      0.136652   4 C  s         
   175      0.130016   5 C  s               218      0.130022   6 C  s         
    90      0.107566   3 C  s               133      0.107571   4 C  s         

 Vector   13  Occ=2.000000D+00  E=-9.222237D-01
              MO Center= -3.1D-05, -3.5D-10, -1.4D+00, r^2= 2.7D+00
   Bfn.  Coefficient  Atom+Function         Bfn.  Coefficient  Atom+Function  
  ----- ------------  ---------------      ----- ------------  ---------------
   261      0.184905   7 C  s               304     -0.184904   8 C  s         
   262      0.167718   7 C  s               305     -0.167720   8 C  s         
   348      0.151911   9 N  s               391     -0.151881  10 N  s         
   347      0.149165   9 N  s               390     -0.149145  10 N  s         
   260     -0.117045   7 C  s               303      0.117044   8 C  s         

 Vector   14  Occ=2.000000D+00  E=-8.835921D-01
              MO Center=  2.2D-05, -1.3D-10,  7.8D-01, r^2= 4.0D+00
   Bfn.  Coefficient  Atom+Function         Bfn.  Coefficient  Atom+Function  
  ----- ------------  ---------------      ----- ------------  ---------------
   175      0.173479   5 C  s               218      0.173478   6 C  s         
   176      0.161741   5 C  s               219      0.161746   6 C  s         
     4     -0.153762   1 C  s                47     -0.153783   2 C  s         
     3     -0.147952   1 C  s                46     -0.147968   2 C  s         
   174     -0.108026   5 C  s               217     -0.108025   6 C  s         

 Vector   15  Occ=2.000000D+00  E=-8.621691D-01
              MO Center= -1.8D-05, -2.5D-10,  7.6D-01, r^2= 4.1D+00
   Bfn.  Coefficient  Atom+Function         Bfn.  Coefficient  Atom+Function  
  ----- ------------  ---------------      ----- ------------  ---------------
    89      0.198264   3 C  s               132     -0.198261   4 C  s         
    90      0.169040   3 C  s               133     -0.169034   4 C  s         
    88     -0.120081   3 C  s               131      0.120079   4 C  s         
     4      0.106731   1 C  s                47     -0.106710   2 C  s         
   175      0.101103   5 C  s               218     -0.101115   6 C  s         

 Vector   16  Occ=2.000000D+00  E=-7.599149D-01
              MO Center=  2.0D-05, -4.2D-10, -1.9D-01, r^2= 5.6D+00
   Bfn.  Coefficient  Atom+Function         Bfn.  Coefficient  Atom+Function  
  ----- ------------  ---------------      ----- ------------  ---------------
   262      0.179933   7 C  s               305      0.179933   8 C  s         
   261      0.152305   7 C  s               304      0.152302   8 C  s         
   351     -0.125474   9 N  px              394      0.125474  10 N  px        
   176      0.115240   5 C  s               219      0.115248   6 C  s         
     9     -0.111043   1 C  pz               52     -0.111049   2 C  pz        

 Vector   17  Occ=2.000000D+00  E=-7.471957D-01
              MO Center= -8.4D-06, -7.9D-11,  4.4D-01, r^2= 4.8D+00
   Bfn.  Coefficient  Atom+Function         Bfn.  Coefficient  Atom+Function  
  ----- ------------  ---------------      ----- ------------  ---------------
     4      0.184817   1 C  s                47     -0.184806   2 C  s         
   176     -0.136622   5 C  s               219      0.136608   6 C  s         
   175     -0.134796   5 C  s               218      0.134784   6 C  s         
     3      0.134031   1 C  s                46     -0.134019   2 C  s         
   267      0.134374   7 C  pz              310     -0.134382   8 C  pz        

 Vector   18  Occ=2.000000D+00  E=-7.222159D-01
              MO Center=  1.9D-05,  1.3D-11,  3.0D-01, r^2= 4.8D+00
   Bfn.  Coefficient  Atom+Function         Bfn.  Coefficient  Atom+Function  
  ----- ------------  ---------------      ----- ------------  ---------------
    90      0.175585   3 C  s               133      0.175590   4 C  s         
    89      0.142494   3 C  s               132      0.142495   4 C  s         
     7     -0.138839   1 C  px               50      0.138842   2 C  px        
     4     -0.102904   1 C  s                47     -0.102908   2 C  s         
   262      0.100903   7 C  s               305      0.100898   8 C  s         

 Vector   19  Occ=2.000000D+00  E=-6.462822D-01
              MO Center=  7.7D-05,  8.9D-11,  3.0D-01, r^2= 5.7D+00
   Bfn.  Coefficient  Atom+Function         Bfn.  Coefficient  Atom+Function  
  ----- ------------  ---------------      ----- ------------  ---------------
   267     -0.139864   7 C  pz              310     -0.139890   8 C  pz        
   351     -0.133602   9 N  px              394      0.133614  10 N  px        
    93      0.128415   3 C  px              136     -0.128414   4 C  px        
     9      0.115739   1 C  pz               52      0.115784   2 C  pz        
   181     -0.105077   5 C  pz              224     -0.105101   6 C  pz        

 Vector   20  Occ=2.000000D+00  E=-6.234398D-01
              MO Center= -3.1D-05,  6.2D-11,  7.3D-01, r^2= 5.9D+00
   Bfn.  Coefficient  Atom+Function         Bfn.  Coefficient  Atom+Function  
  ----- ------------  ---------------      ----- ------------  ---------------
   176      0.139395   5 C  s               219     -0.139388   6 C  s         
     9     -0.122672   1 C  pz               52      0.122636   2 C  pz        
   175      0.120424   5 C  s               218     -0.120418   6 C  s         
   348     -0.108731   9 N  s               391      0.108724  10 N  s         
   267      0.106718   7 C  pz              310     -0.106686   8 C  pz        

 Vector   21  Occ=2.000000D+00  E=-6.074394D-01
              MO Center=  1.9D-05, -2.4D-11, -1.4D-01, r^2= 5.4D+00
   Bfn.  Coefficient  Atom+Function         Bfn.  Coefficient  Atom+Function  
  ----- ------------  ---------------      ----- ------------  ---------------
   179     -0.133403   5 C  px              222      0.133407   6 C  px        
   265      0.132904   7 C  px              308     -0.132918   8 C  px        
    95      0.130988   3 C  pz              138      0.130991   4 C  pz        
   353      0.122068   9 N  pz              396      0.122079  10 N  pz        
     7      0.117976   1 C  px               50     -0.117974   2 C  px        

 Vector   22  Occ=2.000000D+00  E=-5.621875D-01
              MO Center=  4.9D-05, -2.1D-10,  1.6D-02, r^2= 6.0D+00
   Bfn.  Coefficient  Atom+Function         Bfn.  Coefficient  Atom+Function  
  ----- ------------  ---------------      ----- ------------  ---------------
    93      0.162009   3 C  px              136      0.162009   4 C  px        
   265      0.162736   7 C  px              308      0.162742   8 C  px        
     4      0.139522   1 C  s                47     -0.139524   2 C  s         
   432     -0.126573  11 H  s               441      0.126575  12 H  s         
   468     -0.124851  15 H  s               477      0.124857  16 H  s         

 Vector   23  Occ=2.000000D+00  E=-5.553458D-01
              MO Center=  4.9D-05, -6.3D-11,  1.1D+00, r^2= 4.9D+00
   Bfn.  Coefficient  Atom+Function         Bfn.  Coefficient  Atom+Function  
  ----- ------------  ---------------      ----- ------------  ---------------
   181      0.191002   5 C  pz              224      0.191023   6 C  pz        
     9      0.131405   1 C  pz               52      0.131420   2 C  pz        
   267     -0.126350   7 C  pz              310     -0.126349   8 C  pz        
   450      0.118553  13 H  s               459      0.118567  14 H  s         
    95     -0.117238   3 C  pz              138     -0.117253   4 C  pz        

 Vector   24  Occ=2.000000D+00  E=-5.419828D-01
              MO Center=  8.9D-05, -6.1D-10, -7.7D-01, r^2= 3.6D+00
   Bfn.  Coefficient  Atom+Function         Bfn.  Coefficient  Atom+Function  
  ----- ------------  ---------------      ----- ------------  ---------------
   352      0.159584   9 N  py              395      0.159607  10 N  py        
     8      0.154351   1 C  py               51      0.154362   2 C  py        
   266      0.139803   7 C  py              309      0.139821   8 C  py        
   355      0.136324   9 N  py              398      0.136342  10 N  py        
    11      0.126342   1 C  py               54      0.126349   2 C  py        

 Vector   25  Occ=2.000000D+00  E=-5.313246D-01
              MO Center=  2.7D-04, -4.9D-12,  2.9D-01, r^2= 5.5D+00
   Bfn.  Coefficient  Atom+Function         Bfn.  Coefficient  Atom+Function  
  ----- ------------  ---------------      ----- ------------  ---------------
    93      0.187034   3 C  px              136      0.187043   4 C  px        
   265     -0.159969   7 C  px              308     -0.160026   8 C  px        
     9      0.121655   1 C  pz               52     -0.121627   2 C  pz        
   432     -0.118806  11 H  s               441      0.118818  12 H  s         
   468      0.112015  15 H  s               477     -0.112061  16 H  s         

 Vector   26  Occ=2.000000D+00  E=-5.246550D-01
              MO Center= -4.0D-04,  8.3D-10,  7.5D-02, r^2= 5.8D+00
   Bfn.  Coefficient  Atom+Function         Bfn.  Coefficient  Atom+Function  
  ----- ------------  ---------------      ----- ------------  ---------------
   179      0.186170   5 C  px              222     -0.186173   6 C  px        
     7     -0.143641   1 C  px               50      0.143634   2 C  px        
   265      0.134162   7 C  px              308     -0.134069   8 C  px        
   353      0.133759   9 N  pz              396      0.133752  10 N  pz        
    95     -0.132020   3 C  pz              138     -0.132005   4 C  pz        

 Vector   27  Occ=2.000000D+00  E=-4.789233D-01
              MO Center=  5.8D-05, -5.7D-10,  1.6D-01, r^2= 5.8D+00
   Bfn.  Coefficient  Atom+Function         Bfn.  Coefficient  Atom+Function  
  ----- ------------  ---------------      ----- ------------  ---------------
   352     -0.175420   9 N  py              395     -0.175440  10 N  py        
   180      0.161301   5 C  py              223      0.161307   6 C  py        
   355     -0.152264   9 N  py              398     -0.152280  10 N  py        
   183      0.140716   5 C  py              226      0.140720   6 C  py        
    94      0.133606   3 C  py              137      0.133610   4 C  py        

 Vector   28  Occ=2.000000D+00  E=-4.763697D-01
              MO Center= -8.8D-05,  1.0D-10,  1.6D+00, r^2= 4.5D+00
   Bfn.  Coefficient  Atom+Function         Bfn.  Coefficient  Atom+Function  
  ----- ------------  ---------------      ----- ------------  ---------------
   181     -0.200888   5 C  pz              224      0.200870   6 C  pz        
    95      0.192024   3 C  pz              138     -0.192012   4 C  pz        
   187     -0.183085   5 C  pz              230      0.183076   6 C  pz        
    33     -0.147727   1 C  dzz              76      0.147721   2 C  dzz       
   450     -0.148093  13 H  s               459      0.148085  14 H  s         

 Vector   29  Occ=2.000000D+00  E=-4.552341D-01
              MO Center= -2.7D-05,  9.7D-11,  9.5D-01, r^2= 5.1D+00
   Bfn.  Coefficient  Atom+Function         Bfn.  Coefficient  Atom+Function  
  ----- ------------  ---------------      ----- ------------  ---------------
   179      0.186553   5 C  px              222     -0.186554   6 C  px        
     7      0.173281   1 C  px               50     -0.173281   2 C  px        
    93     -0.161687   3 C  px              136      0.161686   4 C  px        
   185      0.144513   5 C  px              228     -0.144513   6 C  px        
   432      0.136177  11 H  s               441      0.136176  12 H  s         

 Vector   30  Occ=2.000000D+00  E=-4.161215D-01
              MO Center= -7.6D-05,  3.2D-10, -4.2D-01, r^2= 4.2D+00
   Bfn.  Coefficient  Atom+Function         Bfn.  Coefficient  Atom+Function  
  ----- ------------  ---------------      ----- ------------  ---------------
   266      0.190447   7 C  py              309     -0.190429   8 C  py        
   269      0.162619   7 C  py              312     -0.162604   8 C  py        
    94      0.146151   3 C  py              137     -0.146153   4 C  py        
     8      0.132750   1 C  py               51     -0.132744   2 C  py        
    14      0.124896   1 C  py               57     -0.124885   2 C  py        

 Vector   31  Occ=2.000000D+00  E=-3.869400D-01
              MO Center=  1.7D-04,  1.2D-10, -2.0D+00, r^2= 3.3D+00
   Bfn.  Coefficient  Atom+Function         Bfn.  Coefficient  Atom+Function  
  ----- ------------  ---------------      ----- ------------  ---------------
   351      0.208542   9 N  px              394     -0.208558  10 N  px        
   353      0.168302   9 N  pz              396      0.168385  10 N  pz        
   354      0.165470   9 N  px              397     -0.165485  10 N  px        
    30     -0.148384   1 C  dxz              73      0.148395   2 C  dxz       
   356      0.134101   9 N  pz              399      0.134157  10 N  pz        

 Vector   32  Occ=2.000000D+00  E=-3.730614D-01
              MO Center= -3.5D-05,  7.6D-10,  5.2D-01, r^2= 4.6D+00
   Bfn.  Coefficient  Atom+Function         Bfn.  Coefficient  Atom+Function  
  ----- ------------  ---------------      ----- ------------  ---------------
     8      0.197973   1 C  py               51      0.197975   2 C  py        
   180     -0.192487   5 C  py              223     -0.192471   6 C  py        
    11      0.167644   1 C  py               54      0.167644   2 C  py        
   183     -0.166907   5 C  py              226     -0.166890   6 C  py        
   352     -0.137991   9 N  py              395     -0.138006  10 N  py        

 Vector   33  Occ=2.000000D+00  E=-3.418925D-01
              MO Center= -5.2D-06,  2.1D-09,  1.6D-01, r^2= 5.4D+00
   Bfn.  Coefficient  Atom+Function         Bfn.  Coefficient  Atom+Function  
  ----- ------------  ---------------      ----- ------------  ---------------
    94      0.202753   3 C  py              137     -0.202759   4 C  py        
    97      0.174247   3 C  py              140     -0.174254   4 C  py        
   266     -0.157876   7 C  py              309      0.157884   8 C  py        
   100      0.152211   3 C  py              143     -0.152218   4 C  py        
   352     -0.139290   9 N  py              395      0.139249  10 N  py        

 Vector   34  Occ=2.000000D+00  E=-3.252700D-01
              MO Center= -2.3D-04, -8.2D-10, -2.4D+00, r^2= 2.3D+00
   Bfn.  Coefficient  Atom+Function         Bfn.  Coefficient  Atom+Function  
  ----- ------------  ---------------      ----- ------------  ---------------
   350      0.374257   9 N  s               393     -0.374188  10 N  s         
   353     -0.273608   9 N  pz              396      0.273550  10 N  pz        
   359     -0.200948   9 N  pz              402      0.200911  10 N  pz        
   348      0.198079   9 N  s               391     -0.198058  10 N  s         
   356     -0.185932   9 N  pz              399      0.185885  10 N  pz        

 Vector   35  Occ=0.000000D+00  E=-8.828522D-03
              MO Center=  2.6D-05, -1.0D-09,  2.1D-01, r^2= 5.8D+00
   Bfn.  Coefficient  Atom+Function         Bfn.  Coefficient  Atom+Function  
  ----- ------------  ---------------      ----- ------------  ---------------
    94      0.198731   3 C  py              137      0.198724   4 C  py        
    97      0.194342   3 C  py              140      0.194337   4 C  py        
   266     -0.188309   7 C  py              309     -0.188317   8 C  py        
   269     -0.179921   7 C  py              312     -0.179930   8 C  py        
    32      0.134411   1 C  dyz              75      0.134390   2 C  dyz       

 Vector   36  Occ=0.000000D+00  E= 8.300718D-03
              MO Center=  4.8D-06, -8.2D-11, -2.1D-02, r^2= 5.6D+00
   Bfn.  Coefficient  Atom+Function         Bfn.  Coefficient  Atom+Function  
  ----- ------------  ---------------      ----- ------------  ---------------
    14      0.215670   1 C  py               57     -0.215682   2 C  py        
     8      0.201773   1 C  py               51     -0.201783   2 C  py        
   352     -0.200482   9 N  py              395      0.200470  10 N  py        
    11      0.186385   1 C  py               54     -0.186390   2 C  py        
    29      0.183791   1 C  dxy              72      0.183774   2 C  dxy       

 Vector   37  Occ=0.000000D+00  E= 4.674350D-02
              MO Center=  2.9D-04,  2.6D-09,  2.1D+00, r^2= 1.7D+01
   Bfn.  Coefficient  Atom+Function         Bfn.  Coefficient  Atom+Function  
  ----- ------------  ---------------      ----- ------------  ---------------
   264     -3.196714   7 C  s               307     -3.197358   8 C  s         
     6      3.051462   1 C  s                49      3.052236   2 C  s         
    92     -3.019178   3 C  s               135     -3.019579   4 C  s         
   178     -2.287105   5 C  s               221     -2.287532   6 C  s         
   469     -1.186904  15 H  s               478     -1.186872  16 H  s         

 Vector   38  Occ=0.000000D+00  E= 6.115939D-02
              MO Center= -1.1D-04, -1.4D-08,  1.0D+00, r^2= 2.1D+01
   Bfn.  Coefficient  Atom+Function         Bfn.  Coefficient  Atom+Function  
  ----- ------------  ---------------      ----- ------------  ---------------
     6      7.603518   1 C  s                49     -7.603605   2 C  s         
   264     -5.496258   7 C  s               307      5.496507   8 C  s         
    92     -4.345079   3 C  s               135      4.345259   4 C  s         
   178     -3.492832   5 C  s               221      3.492044   6 C  s         
   451     -3.485344  13 H  s               460      3.485420  14 H  s         

 Vector   39  Occ=0.000000D+00  E= 6.388765D-02
              MO Center=  9.0D-05,  7.8D-09, -1.1D-01, r^2= 5.8D+00
   Bfn.  Coefficient  Atom+Function         Bfn.  Coefficient  Atom+Function  
  ----- ------------  ---------------      ----- ------------  ---------------
   266     -0.178547   7 C  py              309     -0.178562   8 C  py        
   269     -0.177131   7 C  py              312     -0.177152   8 C  py        
    11      0.164808   1 C  py               54      0.164822   2 C  py        
   438     -0.164158  11 H  py              447     -0.164179  12 H  py        
     8      0.162402   1 C  py               51      0.162422   2 C  py        

 Vector   40  Occ=0.000000D+00  E= 7.033977D-02
              MO Center=  9.9D-05, -4.0D-09,  1.2D+00, r^2= 2.2D+01
   Bfn.  Coefficient  Atom+Function         Bfn.  Coefficient  Atom+Function  
  ----- ------------  ---------------      ----- ------------  ---------------
    92      4.915914   3 C  s               135      4.915416   4 C  s         
   264      4.569702   7 C  s               307      4.569791   8 C  s         
   178     -4.416837   5 C  s               221     -4.418141   6 C  s         
     6     -2.647207   1 C  s                49     -2.646540   2 C  s         
   433      2.651114  11 H  s               442      2.651094  12 H  s         

 Vector   41  Occ=0.000000D+00  E= 8.893889D-02
              MO Center= -9.7D-05, -4.5D-09,  1.2D+00, r^2= 2.3D+01
   Bfn.  Coefficient  Atom+Function         Bfn.  Coefficient  Atom+Function  
  ----- ------------  ---------------      ----- ------------  ---------------
   178      8.250100   5 C  s               221     -8.249022   6 C  s         
   264     -6.410407   7 C  s               307      6.410344   8 C  s         
   433      3.741862  11 H  s               442     -3.742345  12 H  s         
     6      2.436916   1 C  s                49     -2.436642   2 C  s         
   350      2.257400   9 N  s               393     -2.257342  10 N  s         

 Vector   42  Occ=0.000000D+00  E= 9.720769D-02
              MO Center=  3.8D-05, -2.9D-08,  9.1D-01, r^2= 1.6D+01
   Bfn.  Coefficient  Atom+Function         Bfn.  Coefficient  Atom+Function  
  ----- ------------  ---------------      ----- ------------  ---------------
    92     -7.818759   3 C  s               135     -7.819080   4 C  s         
     6      7.130702   1 C  s                49      7.130971   2 C  s         
   178      3.859823   5 C  s               221      3.860718   6 C  s         
   451      2.962675  13 H  s               460      2.962688  14 H  s         
   433      1.992378  11 H  s               442      1.992830  12 H  s         

 Vector   43  Occ=0.000000D+00  E= 1.029948D-01
              MO Center=  5.4D-05,  1.8D-08,  2.8D-01, r^2= 2.0D+01
   Bfn.  Coefficient  Atom+Function         Bfn.  Coefficient  Atom+Function  
  ----- ------------  ---------------      ----- ------------  ---------------
   264      5.938122   7 C  s               307      5.937991   8 C  s         
    92     -5.131464   3 C  s               135     -5.132435   4 C  s         
     6     -4.222342   1 C  s                49     -4.222627   2 C  s         
   451     -2.484094  13 H  s               460     -2.484541  14 H  s         
   178      2.421446   5 C  s               221      2.423177   6 C  s         

 Vector   44  Occ=0.000000D+00  E= 1.251367D-01
              MO Center= -1.6D-04,  1.7D-08,  2.9D-01, r^2= 2.5D+01
   Bfn.  Coefficient  Atom+Function         Bfn.  Coefficient  Atom+Function  
  ----- ------------  ---------------      ----- ------------  ---------------
   178     12.317691   5 C  s               221    -12.317293   6 C  s         
    92    -10.038929   3 C  s               135     10.037948   4 C  s         
   264      8.504101   7 C  s               307     -8.503494   8 C  s         
     6     -4.337249   1 C  s                49      4.337353   2 C  s         
   288     -3.141886   7 C  dxz             331     -3.142038   8 C  dxz       

 Vector   45  Occ=0.000000D+00  E= 1.323632D-01
              MO Center= -8.7D-05,  1.8D-08,  3.1D-01, r^2= 7.6D+00
   Bfn.  Coefficient  Atom+Function         Bfn.  Coefficient  Atom+Function  
  ----- ------------  ---------------      ----- ------------  ---------------
    29      1.163050   1 C  dxy              72      1.162997   2 C  dxy       
    14      0.602481   1 C  py               57     -0.602507   2 C  py        
   118     -0.520948   3 C  dyz             161      0.520877   4 C  dyz       
   100      0.501231   3 C  py              143     -0.501216   4 C  py        
   115     -0.389183   3 C  dxy             158     -0.389165   4 C  dxy       

 Vector   46  Occ=0.000000D+00  E= 1.482529D-01
              MO Center=  9.7D-05, -6.0D-08, -4.5D-02, r^2= 1.8D+01
   Bfn.  Coefficient  Atom+Function         Bfn.  Coefficient  Atom+Function  
  ----- ------------  ---------------      ----- ------------  ---------------
   451     11.315788  13 H  s               460     11.315320  14 H  s         
   469     -8.076957  15 H  s               478     -8.078328  16 H  s         
   177     -7.100551   5 C  s               220     -7.100397   6 C  s         
   116     -4.756023   3 C  dxz             159      4.756123   4 C  dxz       
   271     -4.689798   7 C  px              314      4.690283   8 C  px        

 Vector   47  Occ=0.000000D+00  E= 1.561499D-01
              MO Center= -6.0D-05,  5.2D-07,  3.4D-01, r^2= 1.6D+01
   Bfn.  Coefficient  Atom+Function         Bfn.  Coefficient  Atom+Function  
  ----- ------------  ---------------      ----- ------------  ---------------
     6     21.495880   1 C  s                49    -21.495082   2 C  s         
   433     12.194171  11 H  s               442    -12.194462  12 H  s         
   469      8.558642  15 H  s               478     -8.557809  16 H  s         
    91     -6.398664   3 C  s               134      6.398902   4 C  s         
   263     -6.145542   7 C  s               306      6.145190   8 C  s         

 Vector   48  Occ=0.000000D+00  E= 1.611829D-01
              MO Center=  1.8D-04,  8.3D-08, -5.8D-01, r^2= 2.0D+01
   Bfn.  Coefficient  Atom+Function         Bfn.  Coefficient  Atom+Function  
  ----- ------------  ---------------      ----- ------------  ---------------
     6      8.171603   1 C  s                49      8.172642   2 C  s         
   433     -7.389235  11 H  s               442     -7.388638  12 H  s         
    92     -6.336399   3 C  s               135     -6.337776   4 C  s         
   451     -6.132581  13 H  s               460     -6.133673  14 H  s         
   177      5.535413   5 C  s               220      5.535452   6 C  s         

 Vector   49  Occ=0.000000D+00  E= 1.646298D-01
              MO Center=  1.9D-04, -4.7D-07,  2.9D-01, r^2= 1.3D+01
   Bfn.  Coefficient  Atom+Function         Bfn.  Coefficient  Atom+Function  
  ----- ------------  ---------------      ----- ------------  ---------------
    29      7.693048   1 C  dxy              72      7.693326   2 C  dxy       
   100      2.886051   3 C  py              143     -2.886180   4 C  py        
   118     -2.431360   3 C  dyz             161      2.431602   4 C  dyz       
    14      2.286316   1 C  py               57     -2.286076   2 C  py        
   290      1.849331   7 C  dyz             333     -1.849402   8 C  dyz       

 Vector   50  Occ=0.000000D+00  E= 1.722890D-01
              MO Center= -8.9D-05, -2.6D-08,  3.1D+00, r^2= 8.6D+00
   Bfn.  Coefficient  Atom+Function         Bfn.  Coefficient  Atom+Function  
  ----- ------------  ---------------      ----- ------------  ---------------
   118      2.616819   3 C  dyz             161      2.616568   4 C  dyz       
    29     -1.961347   1 C  dxy              72      1.960433   2 C  dxy       
   186     -1.934013   5 C  py              229     -1.934041   6 C  py        
    14      1.760134   1 C  py               57      1.760369   2 C  py        
   201      1.339805   5 C  dxy             244     -1.339673   6 C  dxy       

 Vector   51  Occ=0.000000D+00  E= 1.803615D-01
              MO Center= -1.4D-04, -7.4D-08,  9.6D-02, r^2= 2.0D+01
   Bfn.  Coefficient  Atom+Function         Bfn.  Coefficient  Atom+Function  
  ----- ------------  ---------------      ----- ------------  ---------------
     6     13.868571   1 C  s                49    -13.868103   2 C  s         
   451     -9.141480  13 H  s               460      9.141011  14 H  s         
    92     -7.509046   3 C  s               135      7.508433   4 C  s         
   433      6.542218  11 H  s               442     -6.543071  12 H  s         
   350     -5.687486   9 N  s               393      5.686276  10 N  s         

 Vector   52  Occ=0.000000D+00  E= 1.953847D-01
              MO Center=  2.8D-05,  4.2D-08, -7.1D-01, r^2= 2.0D+01
   Bfn.  Coefficient  Atom+Function         Bfn.  Coefficient  Atom+Function  
  ----- ------------  ---------------      ----- ------------  ---------------
   264      9.277425   7 C  s               307      9.277729   8 C  s         
   433      9.145416  11 H  s               442      9.145493  12 H  s         
   469      8.745957  15 H  s               478      8.745512  16 H  s         
     6     -8.350248   1 C  s                49     -8.350297   2 C  s         
   350     -7.711471   9 N  s               393     -7.712662  10 N  s         

 Vector   53  Occ=0.000000D+00  E= 2.037903D-01
              MO Center=  2.1D-04, -1.8D-08, -1.5D+00, r^2= 1.1D+01
   Bfn.  Coefficient  Atom+Function         Bfn.  Coefficient  Atom+Function  
  ----- ------------  ---------------      ----- ------------  ---------------
   290      1.829206   7 C  dyz             333      1.829839   8 C  dyz       
   118      1.489450   3 C  dyz             161      1.489984   4 C  dyz       
   115     -1.375351   3 C  dxy             158      1.375648   4 C  dxy       
    32      1.096227   1 C  dyz              75      1.098670   2 C  dyz       
   186     -1.096187   5 C  py              229     -1.096434   6 C  py        

 Vector   54  Occ=0.000000D+00  E= 2.151472D-01
              MO Center= -2.5D-04,  1.7D-06,  5.6D-01, r^2= 1.6D+01
   Bfn.  Coefficient  Atom+Function         Bfn.  Coefficient  Atom+Function  
  ----- ------------  ---------------      ----- ------------  ---------------
    32      9.413922   1 C  dyz              75     -9.413746   2 C  dyz       
   272      4.434011   7 C  py              315     -4.433876   8 C  py        
   100     -3.922226   3 C  py              143      3.922455   4 C  py        
   290      2.603582   7 C  dyz             333     -2.603221   8 C  dyz       
   287      2.212347   7 C  dxy             330      2.212558   8 C  dxy       

 Vector   55  Occ=0.000000D+00  E= 2.165896D-01
              MO Center=  3.5D-04,  8.5D-08,  1.3D+00, r^2= 1.7D+01
   Bfn.  Coefficient  Atom+Function         Bfn.  Coefficient  Atom+Function  
  ----- ------------  ---------------      ----- ------------  ---------------
   264      6.629279   7 C  s               307      6.630683   8 C  s         
   433     -6.641019  11 H  s               442     -6.645132  12 H  s         
   451      5.876433  13 H  s               460      5.867295  14 H  s         
   469      5.514753  15 H  s               478      5.522633  16 H  s         
   119     -5.123188   3 C  dzz             162     -5.121089   4 C  dzz       

 Vector   56  Occ=0.000000D+00  E= 2.172112D-01
              MO Center= -2.6D-04, -1.4D-06,  9.0D-01, r^2= 1.9D+01
   Bfn.  Coefficient  Atom+Function         Bfn.  Coefficient  Atom+Function  
  ----- ------------  ---------------      ----- ------------  ---------------
   451    -14.135875  13 H  s               460     14.138948  14 H  s         
     6     13.803232   1 C  s                49    -13.804836   2 C  s         
   469     10.251248  15 H  s               478    -10.247403  16 H  s         
   178     -8.301105   5 C  s               221      8.303916   6 C  s         
   271      7.333555   7 C  px              314      7.330750   8 C  px        

 Vector   57  Occ=0.000000D+00  E= 2.338184D-01
              MO Center= -1.0D-04, -2.9D-08, -1.8D+00, r^2= 1.8D+01
   Bfn.  Coefficient  Atom+Function         Bfn.  Coefficient  Atom+Function  
  ----- ------------  ---------------      ----- ------------  ---------------
   350     22.789490   9 N  s               393    -22.789723  10 N  s         
   264    -16.315786   7 C  s               307     16.315682   8 C  s         
     6     13.557486   1 C  s                49    -13.555744   2 C  s         
   469    -10.271431  15 H  s               478     10.268212  16 H  s         
   433      9.363885  11 H  s               442     -9.365855  12 H  s         

 Vector   58  Occ=0.000000D+00  E= 2.360540D-01
              MO Center=  1.1D-04, -1.6D-07,  1.6D+00, r^2= 1.6D+01
   Bfn.  Coefficient  Atom+Function         Bfn.  Coefficient  Atom+Function  
  ----- ------------  ---------------      ----- ------------  ---------------
    92     13.441828   3 C  s               135     13.442533   4 C  s         
   178     -7.165522   5 C  s               221     -7.165948   6 C  s         
   451     -6.494699  13 H  s               460     -6.492683  14 H  s         
   433      5.810376  11 H  s               442      5.806250  12 H  s         
    28     -4.380023   1 C  dxx              71     -4.380736   2 C  dxx       

 Vector   59  Occ=0.000000D+00  E= 2.458931D-01
              MO Center=  1.3D-04, -4.9D-08,  2.0D+00, r^2= 1.5D+01
   Bfn.  Coefficient  Atom+Function         Bfn.  Coefficient  Atom+Function  
  ----- ------------  ---------------      ----- ------------  ---------------
   264     -6.544664   7 C  s               307     -6.542802   8 C  s         
     6      6.406497   1 C  s                49      6.403803   2 C  s         
   451     -5.209579  13 H  s               460     -5.209567  14 H  s         
   178      4.833019   5 C  s               221      4.835697   6 C  s         
   177      3.711985   5 C  s               220      3.712193   6 C  s         

 Vector   60  Occ=0.000000D+00  E= 2.475959D-01
              MO Center= -1.3D-04, -9.1D-09,  6.5D-01, r^2= 1.7D+01
   Bfn.  Coefficient  Atom+Function         Bfn.  Coefficient  Atom+Function  
  ----- ------------  ---------------      ----- ------------  ---------------
     6     10.768382   1 C  s                49    -10.769921   2 C  s         
   178     -9.128795   5 C  s               221      9.127423   6 C  s         
   264     -5.554635   7 C  s               307      5.556649   8 C  s         
   288      3.807224   7 C  dxz             331      3.807662   8 C  dxz       
   350     -3.632762   9 N  s               393      3.631881  10 N  s         

 Vector   61  Occ=0.000000D+00  E= 2.490233D-01
              MO Center=  1.1D-04,  2.5D-07,  7.2D-01, r^2= 1.5D+01
   Bfn.  Coefficient  Atom+Function         Bfn.  Coefficient  Atom+Function  
  ----- ------------  ---------------      ----- ------------  ---------------
    32      3.005433   1 C  dyz              75      3.005783   2 C  dyz       
   100     -2.406294   3 C  py              143     -2.406324   4 C  py        
   290      2.291416   7 C  dyz             333      2.291818   8 C  dyz       
   186      1.937635   5 C  py              229      1.938054   6 C  py        
   272      1.674721   7 C  py              315      1.675050   8 C  py        

 Vector   62  Occ=0.000000D+00  E= 2.548704D-01
              MO Center= -9.5D-05,  7.1D-08, -1.9D-01, r^2= 1.1D+01
   Bfn.  Coefficient  Atom+Function         Bfn.  Coefficient  Atom+Function  
  ----- ------------  ---------------      ----- ------------  ---------------
    29      6.592478   1 C  dxy              72      6.592558   2 C  dxy       
    32      5.666094   1 C  dyz              75     -5.666165   2 C  dyz       
   272      4.238569   7 C  py              315     -4.238953   8 C  py        
   290      3.443134   7 C  dyz             333     -3.442982   8 C  dyz       
   115     -2.710377   3 C  dxy             158     -2.710352   4 C  dxy       

 Vector   63  Occ=0.000000D+00  E= 2.577046D-01
              MO Center=  1.0D-04, -1.1D-08,  5.1D-01, r^2= 1.4D+01
   Bfn.  Coefficient  Atom+Function         Bfn.  Coefficient  Atom+Function  
  ----- ------------  ---------------      ----- ------------  ---------------
   433     10.329446  11 H  s               442     10.330282  12 H  s         
     6      6.701980   1 C  s                49      6.703738   2 C  s         
   451      5.134005  13 H  s               460      5.134226  14 H  s         
   469     -4.625333  15 H  s               478     -4.625913  16 H  s         
   177     -4.589238   5 C  s               220     -4.589401   6 C  s         

 Vector   64  Occ=0.000000D+00  E= 2.711548D-01
              MO Center=  4.1D-05,  3.2D-07, -5.2D-01, r^2= 9.0D+00
   Bfn.  Coefficient  Atom+Function         Bfn.  Coefficient  Atom+Function  
  ----- ------------  ---------------      ----- ------------  ---------------
   272      3.372643   7 C  py              315      3.371723   8 C  py        
    14     -2.440497   1 C  py               57     -2.440906   2 C  py        
    32      2.351737   1 C  dyz              75      2.350310   2 C  dyz       
   287      1.833830   7 C  dxy             330     -1.833610   8 C  dxy       
    29      1.573943   1 C  dxy              72     -1.572188   2 C  dxy       

 Vector   65  Occ=0.000000D+00  E= 2.729042D-01
              MO Center=  2.1D-05,  4.3D-08,  4.4D-01, r^2= 1.4D+01
   Bfn.  Coefficient  Atom+Function         Bfn.  Coefficient  Atom+Function  
  ----- ------------  ---------------      ----- ------------  ---------------
   451     11.539907  13 H  s               460     11.535078  14 H  s         
   177     -7.132680   5 C  s               220     -7.131557   6 C  s         
   288     -5.997096   7 C  dxz             331      5.994117   8 C  dxz       
   187     -4.972082   5 C  pz              230     -4.969440   6 C  pz        
   264     -4.571542   7 C  s               307     -4.576263   8 C  s         

 Vector   66  Occ=0.000000D+00  E= 2.736412D-01
              MO Center=  7.6D-04,  3.2D-08,  7.7D-01, r^2= 1.8D+01
   Bfn.  Coefficient  Atom+Function         Bfn.  Coefficient  Atom+Function  
  ----- ------------  ---------------      ----- ------------  ---------------
   178     14.508217   5 C  s               221    -14.505454   6 C  s         
   469     10.771882  15 H  s               478    -10.782000  16 H  s         
    92    -10.541412   3 C  s               135     10.529790   4 C  s         
     6     -9.689896   1 C  s                49      9.704342   2 C  s         
   451      8.748536  13 H  s               460     -8.753339  14 H  s         

 Vector   67  Occ=0.000000D+00  E= 2.744153D-01
              MO Center= -6.9D-04, -2.2D-07,  2.1D-01, r^2= 1.5D+01
   Bfn.  Coefficient  Atom+Function         Bfn.  Coefficient  Atom+Function  
  ----- ------------  ---------------      ----- ------------  ---------------
     6     11.978112   1 C  s                49     11.966097   2 C  s         
    92     -6.241341   3 C  s               135     -6.256548   4 C  s         
    28      5.685709   1 C  dxx              71      5.680090   2 C  dxx       
   469     -5.588427  15 H  s               478     -5.572475  16 H  s         
   433     -4.983550  11 H  s               442     -4.979158  12 H  s         

 Vector   68  Occ=0.000000D+00  E= 2.877595D-01
              MO Center= -2.7D-05,  9.0D-08, -5.6D-02, r^2= 1.6D+01
   Bfn.  Coefficient  Atom+Function         Bfn.  Coefficient  Atom+Function  
  ----- ------------  ---------------      ----- ------------  ---------------
   178     13.266156   5 C  s               221    -13.266339   6 C  s         
   350    -12.119157   9 N  s               393     12.119087  10 N  s         
    92     -6.959520   3 C  s               135      6.960366   4 C  s         
   291      5.428896   7 C  dzz             334     -5.428412   8 C  dzz       
   469      5.280578  15 H  s               478     -5.280473  16 H  s         

 Vector   69  Occ=0.000000D+00  E= 2.943644D-01
              MO Center= -1.4D-04, -3.4D-08,  6.7D-01, r^2= 1.7D+01
   Bfn.  Coefficient  Atom+Function         Bfn.  Coefficient  Atom+Function  
  ----- ------------  ---------------      ----- ------------  ---------------
   264     11.353913   7 C  s               307    -11.353678   8 C  s         
    92     -8.636216   3 C  s               135      8.634349   4 C  s         
     6     -8.387628   1 C  s                49      8.388052   2 C  s         
   350     -8.231023   9 N  s               393      8.230143  10 N  s         
   288     -4.640168   7 C  dxz             331     -4.641199   8 C  dxz       

 Vector   70  Occ=0.000000D+00  E= 2.955714D-01
              MO Center=  7.8D-05,  9.8D-08,  4.0D-01, r^2= 1.2D+01
   Bfn.  Coefficient  Atom+Function         Bfn.  Coefficient  Atom+Function  
  ----- ------------  ---------------      ----- ------------  ---------------
   100      2.714336   3 C  py              143      2.714352   4 C  py        
    14     -2.237417   1 C  py               57     -2.237527   2 C  py        
   290      2.029076   7 C  dyz             333      2.029351   8 C  dyz       
    29      1.443592   1 C  dxy              72     -1.443776   2 C  dxy       
   115      1.023798   3 C  dxy             158     -1.023793   4 C  dxy       

 Vector   71  Occ=0.000000D+00  E= 2.958702D-01
              MO Center=  3.9D-05, -7.6D-08,  2.5D-01, r^2= 1.8D+01
   Bfn.  Coefficient  Atom+Function         Bfn.  Coefficient  Atom+Function  
  ----- ------------  ---------------      ----- ------------  ---------------
    28      7.176507   1 C  dxx              71      7.177468   2 C  dxx       
   101      6.141659   3 C  pz              144      6.141570   4 C  pz        
   116     -5.806084   3 C  dxz             159      5.807313   4 C  dxz       
   451     -5.636755  13 H  s               460     -5.638034  14 H  s         
   469     -5.355539  15 H  s               478     -5.355837  16 H  s         

 Vector   72  Occ=0.000000D+00  E= 3.090104D-01
              MO Center=  9.2D-05,  1.0D-07, -3.3D-02, r^2= 1.4D+01
   Bfn.  Coefficient  Atom+Function         Bfn.  Coefficient  Atom+Function  
  ----- ------------  ---------------      ----- ------------  ---------------
   469     15.660196  15 H  s               478     15.659834  16 H  s         
   451    -13.941886  13 H  s               460    -13.944526  14 H  s         
   433    -12.979995  11 H  s               442    -12.980791  12 H  s         
   177     11.955377   5 C  s               220     11.955876   6 C  s         
   271      9.956315   7 C  px              314     -9.956718   8 C  px        

 Vector   73  Occ=0.000000D+00  E= 3.090287D-01
              MO Center= -7.6D-05,  2.6D-08,  1.5D+00, r^2= 1.2D+01
   Bfn.  Coefficient  Atom+Function         Bfn.  Coefficient  Atom+Function  
  ----- ------------  ---------------      ----- ------------  ---------------
    32      6.171263   1 C  dyz              75     -6.171163   2 C  dyz       
   100     -4.787077   3 C  py              143      4.786848   4 C  py        
   186      4.517143   5 C  py              229     -4.517168   6 C  py        
   287      2.833074   7 C  dxy             330      2.833088   8 C  dxy       
   115     -2.429700   3 C  dxy             158     -2.429682   4 C  dxy       

 Vector   74  Occ=0.000000D+00  E= 3.150811D-01
              MO Center= -9.1D-05, -8.6D-08,  2.9D-01, r^2= 1.1D+01
   Bfn.  Coefficient  Atom+Function         Bfn.  Coefficient  Atom+Function  
  ----- ------------  ---------------      ----- ------------  ---------------
   451     11.818921  13 H  s               460    -11.813889  14 H  s         
   469     11.818706  15 H  s               478    -11.821894  16 H  s         
   263     -6.546745   7 C  s               306      6.547873   8 C  s         
   433      6.326987  11 H  s               442     -6.323367  12 H  s         
     6      6.281348   1 C  s                49     -6.282744   2 C  s         

 Vector   75  Occ=0.000000D+00  E= 3.333247D-01
              MO Center=  6.3D-05,  4.9D-07,  8.4D-01, r^2= 9.7D+00
   Bfn.  Coefficient  Atom+Function         Bfn.  Coefficient  Atom+Function  
  ----- ------------  ---------------      ----- ------------  ---------------
    14      4.225345   1 C  py               57      4.225446   2 C  py        
   118      4.228294   3 C  dyz             161      4.228697   4 C  dyz       
    32      3.445599   1 C  dyz              75      3.446790   2 C  dyz       
    29     -3.159734   1 C  dxy              72      3.160404   2 C  dxy       
   100     -3.142048   3 C  py              143     -3.142859   4 C  py        

 Vector   76  Occ=0.000000D+00  E= 3.345038D-01
              MO Center=  2.3D-04, -5.3D-07,  7.0D-01, r^2= 1.4D+01
   Bfn.  Coefficient  Atom+Function         Bfn.  Coefficient  Atom+Function  
  ----- ------------  ---------------      ----- ------------  ---------------
   451     10.001070  13 H  s               460     10.005234  14 H  s         
     6     -7.703283   1 C  s                49     -7.714132   2 C  s         
    92      7.161536   3 C  s               135      7.164867   4 C  s         
   177     -5.896627   5 C  s               220     -5.896355   6 C  s         
   349     -5.879583   9 N  s               392     -5.880796  10 N  s         

 Vector   77  Occ=0.000000D+00  E= 3.351687D-01
              MO Center= -1.8D-04, -1.8D-07,  6.0D-01, r^2= 1.4D+01
   Bfn.  Coefficient  Atom+Function         Bfn.  Coefficient  Atom+Function  
  ----- ------------  ---------------      ----- ------------  ---------------
     6     35.047001   1 C  s                49    -35.043701   2 C  s         
   433     20.513207  11 H  s               442    -20.515898  12 H  s         
    92     -9.151823   3 C  s               135      9.148019   4 C  s         
    99      8.584870   3 C  px              142      8.585472   4 C  px        
   350      7.549479   9 N  s               393     -7.549560  10 N  s         

 Vector   78  Occ=0.000000D+00  E= 3.403435D-01
              MO Center= -7.2D-05,  2.2D-07,  1.9D-02, r^2= 1.5D+01
   Bfn.  Coefficient  Atom+Function         Bfn.  Coefficient  Atom+Function  
  ----- ------------  ---------------      ----- ------------  ---------------
    29     12.055436   1 C  dxy              72     12.055310   2 C  dxy       
    32     -7.320876   1 C  dyz              75      7.320575   2 C  dyz       
   118     -5.166262   3 C  dyz             161      5.166095   4 C  dyz       
   100      4.485029   3 C  py              143     -4.484800   4 C  py        
    14      3.053341   1 C  py               57     -3.053493   2 C  py        

 Vector   79  Occ=0.000000D+00  E= 3.529993D-01
              MO Center=  1.0D-02,  3.4D-07,  1.1D+00, r^2= 1.7D+01
   Bfn.  Coefficient  Atom+Function         Bfn.  Coefficient  Atom+Function  
  ----- ------------  ---------------      ----- ------------  ---------------
    33     10.570684   1 C  dzz              76    -10.566507   2 C  dzz       
    49      9.142137   2 C  s                 6     -9.064041   1 C  s         
   205     -7.765403   5 C  dzz             248      7.768353   6 C  dzz       
   230     -5.865093   6 C  pz              187      5.771252   5 C  pz        
   316     -4.711882   8 C  pz              273      4.685031   7 C  pz        

 Vector   80  Occ=0.000000D+00  E= 3.530487D-01
              MO Center= -1.0D-02,  2.1D-07,  6.7D-01, r^2= 1.2D+01
   Bfn.  Coefficient  Atom+Function         Bfn.  Coefficient  Atom+Function  
  ----- ------------  ---------------      ----- ------------  ---------------
   451     -6.661456  13 H  s               460     -6.618117  14 H  s         
   159     -6.355265   4 C  dxz             116      6.250187   3 C  dxz       
   264      6.267812   7 C  s               307      6.145778   8 C  s         
    30      5.666205   1 C  dxz              73     -5.684502   2 C  dxz       
   177      5.572198   5 C  s               220      5.505576   6 C  s         

 Vector   81  Occ=0.000000D+00  E= 3.648539D-01
              MO Center=  8.4D-05, -3.6D-08,  2.8D-01, r^2= 1.5D+01
   Bfn.  Coefficient  Atom+Function         Bfn.  Coefficient  Atom+Function  
  ----- ------------  ---------------      ----- ------------  ---------------
    30     13.956593   1 C  dxz              73    -13.955894   2 C  dxz       
   288     11.221572   7 C  dxz             331    -11.223478   8 C  dxz       
   116     10.235790   3 C  dxz             159    -10.235833   4 C  dxz       
   469     -8.270977  15 H  s               478     -8.267960  16 H  s         
   286      6.789386   7 C  dxx             329      6.789679   8 C  dxx       

 Vector   82  Occ=0.000000D+00  E= 3.663348D-01
              MO Center= -2.4D-04, -1.7D-07, -4.1D-01, r^2= 1.4D+01
   Bfn.  Coefficient  Atom+Function         Bfn.  Coefficient  Atom+Function  
  ----- ------------  ---------------      ----- ------------  ---------------
   469     11.953262  15 H  s               478    -11.956027  16 H  s         
   350    -10.418427   9 N  s               393     10.419997  10 N  s         
   273      8.827551   7 C  pz              316     -8.828105   8 C  pz        
   349     -8.282219   9 N  s               392      8.284048  10 N  s         
   357     -7.563888   9 N  px              400     -7.563780  10 N  px        

 Vector   83  Occ=0.000000D+00  E= 3.703489D-01
              MO Center= -4.6D-05,  3.8D-07,  3.9D-01, r^2= 1.4D+01
   Bfn.  Coefficient  Atom+Function         Bfn.  Coefficient  Atom+Function  
  ----- ------------  ---------------      ----- ------------  ---------------
    14      6.621241   1 C  py               57     -6.620821   2 C  py        
    29      3.798998   1 C  dxy              72      3.799209   2 C  dxy       
   290     -2.623312   7 C  dyz             333      2.623141   8 C  dyz       
   287     -2.264384   7 C  dxy             330     -2.264427   8 C  dxy       
   100     -1.856997   3 C  py              143      1.856618   4 C  py        

 Vector   84  Occ=0.000000D+00  E= 3.760230D-01
              MO Center=  1.2D-04, -4.3D-08,  8.5D-01, r^2= 1.6D+01
   Bfn.  Coefficient  Atom+Function         Bfn.  Coefficient  Atom+Function  
  ----- ------------  ---------------      ----- ------------  ---------------
   451     11.297706  13 H  s               460     11.299158  14 H  s         
   187     -8.620281   5 C  pz              230     -8.621036   6 C  pz        
    33     -7.209756   1 C  dzz              76     -7.211416   2 C  dzz       
   116      6.955413   3 C  dxz             159     -6.956718   4 C  dxz       
   178      4.874938   5 C  s               221      4.875768   6 C  s         

 Vector   85  Occ=0.000000D+00  E= 3.769222D-01
              MO Center= -6.0D-05, -1.5D-07,  1.7D+00, r^2= 1.5D+01
   Bfn.  Coefficient  Atom+Function         Bfn.  Coefficient  Atom+Function  
  ----- ------------  ---------------      ----- ------------  ---------------
   469    -17.730625  15 H  s               478     17.730192  16 H  s         
   451     17.401549  13 H  s               460    -17.401060  14 H  s         
   185     11.992724   5 C  px              228     11.992644   6 C  px        
   202     11.874587   5 C  dxz             245     11.874448   6 C  dxz       
   433     11.795763  11 H  s               442    -11.795479  12 H  s         

 Vector   86  Occ=0.000000D+00  E= 3.933406D-01
              MO Center= -9.5D-06, -6.4D-07,  2.5D+00, r^2= 1.2D+01
   Bfn.  Coefficient  Atom+Function         Bfn.  Coefficient  Atom+Function  
  ----- ------------  ---------------      ----- ------------  ---------------
   115      5.633424   3 C  dxy             158     -5.633645   4 C  dxy       
   204      4.710167   5 C  dyz             247      4.710158   6 C  dyz       
   438      2.839341  11 H  py              447      2.839388  12 H  py        
   456     -2.708399  13 H  py              465     -2.708306  14 H  py        
   100      1.956536   3 C  py              143      1.956795   4 C  py        

 Vector   87  Occ=0.000000D+00  E= 3.971045D-01
              MO Center=  6.3D-05,  6.7D-07, -1.2D-01, r^2= 1.5D+01
   Bfn.  Coefficient  Atom+Function         Bfn.  Coefficient  Atom+Function  
  ----- ------------  ---------------      ----- ------------  ---------------
   469     16.328686  15 H  s               478     16.332694  16 H  s         
   433     13.083493  11 H  s               442     13.082965  12 H  s         
   288    -10.903776   7 C  dxz             331     10.903945   8 C  dxz       
   349     -8.949630   9 N  s               392     -8.950994  10 N  s         
    28     -8.523700   1 C  dxx              71     -8.523751   2 C  dxx       

 Vector   88  Occ=0.000000D+00  E= 4.016548D-01
[...]
  ----  ------  ------  ---------  ---------  --------- 
  Convergence criterion met

  Ground state a        -417.692097973304 a.u.

  ----------------------------------------------------------------------------
  Root   1 singlet a              0.140147300 a.u.                3.8136 eV 
  ----------------------------------------------------------------------------
     Transition Moments    X  0.00000   Y -0.00002   Z  0.00000
     Transition Moments   XX  0.00000  XY -0.34756  XZ -0.00000
     Transition Moments   YY  0.00000  YZ  0.00014  ZZ -0.00000
     Dipole Oscillator Strength                    0.0000000000
     Electric Quadrupole                           0.0000000018
     Magnetic Dipole                               0.0000000428
     Total Oscillator Strength                     0.0000000446

     Occ.   34  a   ---  Virt.   35  a       -0.92602
     Occ.   34  a   ---  Virt.   39  a       -0.36144
  ----------------------------------------------------------------------------
  Root   2 singlet a              0.157862420 a.u.                4.2957 eV 
  ----------------------------------------------------------------------------
     Transition Moments    X -0.00000   Y  0.22466   Z -0.00000
     Transition Moments   XX  0.00000  XY -0.00015  XZ -0.00000
     Transition Moments   YY -0.00000  YZ -1.61347  ZZ  0.00000
     Dipole Oscillator Strength                    0.0053119726
     Electric Quadrupole                           0.0000000545
     Magnetic Dipole                               0.0000005366
     Total Oscillator Strength                     0.0053125638

     Occ.   34  a   ---  Virt.   36  a        0.96875
     Occ.   34  a   ---  Virt.   45  a       -0.23032
  ----------------------------------------------------------------------------
  Root   3 singlet a              0.177083703 a.u.                4.8187 eV 
  ----------------------------------------------------------------------------
     Transition Moments    X -0.00013   Y  0.00000   Z -0.22257
     Transition Moments   XX -0.63770  XY  0.00000  XZ  0.00024
     Transition Moments   YY -0.05936  YZ -0.00000  ZZ  0.86186
     Dipole Oscillator Strength                    0.0058482821
     Electric Quadrupole                           0.0000000169
     Magnetic Dipole                               0.0000000000
     Total Oscillator Strength                     0.0058482990

     Occ.   27  a   ---  Virt.   39  a       -0.06902
     Occ.   30  a   ---  Virt.   45  a       -0.07775
     Occ.   32  a   ---  Virt.   35  a       -0.66161
     Occ.   33  a   ---  Virt.   36  a       -0.73435
  ----------------------------------------------------------------------------
  Root   4 singlet a              0.192066674 a.u.                5.2264 eV 
  ----------------------------------------------------------------------------
     Transition Moments    X  0.74811   Y -0.00000   Z -0.00008
     Transition Moments   XX -0.00007  XY -0.00000  XZ -0.00087
     Transition Moments   YY  0.00002  YZ  0.00000  ZZ  0.00011
     Dipole Oscillator Strength                    0.0716629949
     Electric Quadrupole                           0.0000000000
     Magnetic Dipole                               0.0000000328
     Total Oscillator Strength                     0.0716630277

     Occ.   24  a   ---  Virt.   36  a       -0.07111
     Occ.   32  a   ---  Virt.   36  a       -0.34107
     Occ.   33  a   ---  Virt.   35  a        0.91952
     Occ.   33  a   ---  Virt.   39  a        0.09314
  ----------------------------------------------------------------------------
  Root   5 singlet a              0.198117888 a.u.                5.3911 eV 
  ----------------------------------------------------------------------------
     Transition Moments    X -0.00000   Y -0.17378   Z -0.00000
     Transition Moments   XX -0.00000  XY -0.00018  XZ -0.00000
     Transition Moments   YY  0.00000  YZ  1.02357  ZZ  0.00000
     Dipole Oscillator Strength                    0.0039887305
     Electric Quadrupole                           0.0000000434
     Magnetic Dipole                               0.0000003401
     Total Oscillator Strength                     0.0039891139

     Occ.   29  a   ---  Virt.   39  a        0.05344
     Occ.   31  a   ---  Virt.   35  a       -0.93373
     Occ.   31  a   ---  Virt.   39  a       -0.33042
     Occ.   34  a   ---  Virt.   45  a        0.05775
  ----------------------------------------------------------------------------
  Root   6 singlet a              0.214691523 a.u.                5.8421 eV 
  ----------------------------------------------------------------------------
     Transition Moments    X -0.00000   Y -0.00001   Z  0.00000
     Transition Moments   XX -0.00000  XY  0.57130  XZ  0.00000
     Transition Moments   YY -0.00000  YZ  0.00000  ZZ -0.00000
     Dipole Oscillator Strength                    0.0000000000
     Electric Quadrupole                           0.0000000172
     Magnetic Dipole                               0.0000003984
     Total Oscillator Strength                     0.0000004156

     Occ.   31  a   ---  Virt.   36  a        0.97067
     Occ.   31  a   ---  Virt.   45  a       -0.21939
  ----------------------------------------------------------------------------
  Root   7 singlet a              0.230603780 a.u.                6.2751 eV 
  ----------------------------------------------------------------------------
     Transition Moments    X  0.00000   Y -0.00001   Z -0.00000
     Transition Moments   XX -0.00000  XY  0.07825  XZ -0.00000
     Transition Moments   YY -0.00000  YZ  0.00003  ZZ  0.00000
     Dipole Oscillator Strength                    0.0000000000
     Electric Quadrupole                           0.0000000004
     Magnetic Dipole                               0.0000000031
     Total Oscillator Strength                     0.0000000035

     Occ.   28  a   ---  Virt.   35  a       -0.18352
     Occ.   28  a   ---  Virt.   39  a        0.07436
     Occ.   34  a   ---  Virt.   35  a       -0.35306
     Occ.   34  a   ---  Virt.   39  a        0.90741
  ----------------------------------------------------------------------------
  Root   8 singlet a              0.243418570 a.u.                6.6238 eV 
  ----------------------------------------------------------------------------
     Transition Moments    X -0.52920   Y -0.00000   Z -0.00035
     Transition Moments   XX -0.00026  XY -0.00000  XZ  1.29805
     Transition Moments   YY  0.00013  YZ  0.00000  ZZ  0.00066
     Dipole Oscillator Strength                    0.0454461570
     Electric Quadrupole                           0.0000001294
     Magnetic Dipole                               0.0000000105
     Total Oscillator Strength                     0.0454462969

     Occ.   30  a   ---  Virt.   35  a       -0.07143
     Occ.   30  a   ---  Virt.   39  a       -0.05686
     Occ.   31  a   ---  Virt.   38  a       -0.09911
     Occ.   31  a   ---  Virt.   41  a       -0.08271
     Occ.   32  a   ---  Virt.   36  a       -0.23939
     Occ.   33  a   ---  Virt.   35  a       -0.10817
     Occ.   34  a   ---  Virt.   37  a        0.59763
     Occ.   34  a   ---  Virt.   40  a       -0.59372
     Occ.   34  a   ---  Virt.   42  a       -0.30523
     Occ.   34  a   ---  Virt.   43  a       -0.20502
     Occ.   34  a   ---  Virt.   46  a        0.14620
     Occ.   34  a   ---  Virt.   48  a        0.05172
     Occ.   34  a   ---  Virt.   52  a        0.09351
     Occ.   34  a   ---  Virt.   55  a        0.06149
     Occ.   34  a   ---  Virt.   63  a        0.06749
     Occ.   34  a   ---  Virt.   65  a       -0.06249

              Target root =      1
          Target symmetry = none
      Ground state energy =   -417.692097973304
        Excitation energy =      0.140147299583
     Excited state energy =   -417.551950673721

  stored tddft:energy   -417.55195067372131     

    8 smallest eigenvalue differences (eV) 
--------------------------------------------------------
  No. Spin  Occ  Vir  Irrep   E(Occ)    E(Vir)   E(Diff)
--------------------------------------------------------
    1    1   34   35 a        -0.325    -0.009     8.611
    2    1   33   35 a        -0.342    -0.009     9.063
    3    1   34   36 a        -0.325     0.008     9.077
    4    1   33   36 a        -0.342     0.008     9.529
    5    1   32   35 a        -0.373    -0.009     9.911
    6    1   34   37 a        -0.325     0.047    10.123
    7    1   31   35 a        -0.387    -0.009    10.289
    8    1   32   36 a        -0.373     0.008    10.377
--------------------------------------------------------

  Entering Davidson iterations
  Restricted triplet excited states

  Iter   NTrls   NConv    DeltaV     DeltaE      Time   
  ----  ------  ------  ---------  ---------  --------- 
    1      8       0     0.67E-01   0.10+100      304.1
    2     16       0     0.30E-01   0.25E-01      307.5
    3     24       0     0.59E-01   0.16E-01      306.5
    4     32       0     0.75E-01   0.18E-01      308.0
    5     40       0     0.39E-01   0.11E-01      306.7
    6     48       0     0.12E+00   0.16E-01      308.1
    7     56       2     0.58E-01   0.13E-01      308.2
    8     62       6     0.11E-01   0.89E-03      282.9
    9     64       7     0.22E-02   0.52E-04      229.3
   10     65       7     0.37E-03   0.17E-05      217.3
   11     66       8     0.96E-04   0.53E-07      216.4
  ----  ------  ------  ---------  ---------  --------- 
  Convergence criterion met

  Ground state a        -417.692097973304 a.u.

  ----------------------------------------------------------------------------
  Root   1 triplet a              0.123158860 a.u.                3.3513 eV 
  ----------------------------------------------------------------------------
     Transition Moments                    Spin forbidden
     Oscillator Strength                   Spin forbidden

     Occ.   31  a   ---  Virt.   36  a       -0.13660
     Occ.   31  a   ---  Virt.   45  a        0.10185
     Occ.   34  a   ---  Virt.   35  a       -0.89508
     Occ.   34  a   ---  Virt.   39  a       -0.38896
     Occ.   34  a   ---  Virt.   53  a        0.05358
  ----------------------------------------------------------------------------
  Root   2 triplet a              0.123311066 a.u.                3.3555 eV 
  ----------------------------------------------------------------------------
     Transition Moments                    Spin forbidden
     Oscillator Strength                   Spin forbidden

     Occ.   27  a   ---  Virt.   45  a        0.12392
     Occ.   30  a   ---  Virt.   39  a       -0.22616
     Occ.   32  a   ---  Virt.   36  a       -0.21775
     Occ.   33  a   ---  Virt.   35  a        0.92932
     Occ.   33  a   ---  Virt.   39  a       -0.05118
  ----------------------------------------------------------------------------
  Root   3 triplet a              0.127117678 a.u.                3.4590 eV 
  ----------------------------------------------------------------------------
     Transition Moments                    Spin forbidden
     Oscillator Strength                   Spin forbidden

     Occ.   31  a   ---  Virt.   35  a        0.18185
     Occ.   31  a   ---  Virt.   39  a        0.08601
     Occ.   34  a   ---  Virt.   36  a        0.90991
     Occ.   34  a   ---  Virt.   45  a       -0.34002
     Occ.   34  a   ---  Virt.   62  a        0.06227
  ----------------------------------------------------------------------------
  Root   4 triplet a              0.152659358 a.u.                4.1541 eV 
  ----------------------------------------------------------------------------
     Transition Moments                    Spin forbidden
     Oscillator Strength                   Spin forbidden

     Occ.   24  a   ---  Virt.   35  a        0.06300
     Occ.   27  a   ---  Virt.   39  a       -0.05698
     Occ.   30  a   ---  Virt.   36  a       -0.06030
     Occ.   30  a   ---  Virt.   45  a        0.17020
     Occ.   32  a   ---  Virt.   35  a       -0.23249
     Occ.   33  a   ---  Virt.   36  a        0.94797
  ----------------------------------------------------------------------------
  Root   5 triplet a              0.167293755 a.u.                4.5523 eV 
  ----------------------------------------------------------------------------
     Transition Moments                    Spin forbidden
     Oscillator Strength                   Spin forbidden

     Occ.   27  a   ---  Virt.   35  a       -0.05902
     Occ.   27  a   ---  Virt.   39  a        0.12170
     Occ.   30  a   ---  Virt.   36  a       -0.06219
     Occ.   32  a   ---  Virt.   35  a        0.94953
     Occ.   32  a   ---  Virt.   39  a       -0.09657
     Occ.   33  a   ---  Virt.   36  a        0.22697
     Occ.   33  a   ---  Virt.   45  a       -0.06721
  ----------------------------------------------------------------------------
  Root   6 triplet a              0.170380766 a.u.                4.6363 eV 
  ----------------------------------------------------------------------------
     Transition Moments                    Spin forbidden
     Oscillator Strength                   Spin forbidden

     Occ.   24  a   ---  Virt.   36  a       -0.05772
     Occ.   24  a   ---  Virt.   45  a        0.10927
     Occ.   27  a   ---  Virt.   36  a        0.10586
     Occ.   27  a   ---  Virt.   62  a        0.05323
     Occ.   30  a   ---  Virt.   35  a        0.72042
     Occ.   30  a   ---  Virt.   39  a        0.11034
     Occ.   32  a   ---  Virt.   45  a       -0.06693
     Occ.   33  a   ---  Virt.   39  a       -0.63952
     Occ.   33  a   ---  Virt.   53  a        0.08195
     Occ.   33  a   ---  Virt.   61  a       -0.06003
  ----------------------------------------------------------------------------
  Root   7 triplet a              0.171320263 a.u.                4.6619 eV 
  ----------------------------------------------------------------------------
     Transition Moments                    Spin forbidden
     Oscillator Strength                   Spin forbidden

     Occ.   24  a   ---  Virt.   36  a        0.05183
     Occ.   27  a   ---  Virt.   36  a        0.05372
     Occ.   27  a   ---  Virt.   45  a       -0.10646
     Occ.   32  a   ---  Virt.   36  a        0.95265
     Occ.   32  a   ---  Virt.   45  a        0.05166
     Occ.   32  a   ---  Virt.   62  a       -0.06385
     Occ.   33  a   ---  Virt.   35  a        0.24328
  ----------------------------------------------------------------------------
  Root   8 triplet a              0.189833374 a.u.                5.1656 eV 
  ----------------------------------------------------------------------------
     Transition Moments                    Spin forbidden
     Oscillator Strength                   Spin forbidden

     Occ.   31  a   ---  Virt.   35  a       -0.89271
     Occ.   31  a   ---  Virt.   39  a       -0.35347
     Occ.   34  a   ---  Virt.   36  a        0.23754
     Occ.   34  a   ---  Virt.   45  a        0.05254

              Target root =      1
          Target symmetry = none
      Ground state energy =   -417.692097973304
        Excitation energy =      0.123158859705
     Excited state energy =   -417.568939113599

  stored tddft:energy   -417.56893911359862     

 Task  times  cpu:     6911.3s     wall:     8257.4s


                                NWChem Input Module
                                -------------------


 Summary of allocated global arrays
-----------------------------------
  No active global arrays


MA_summarize_allocated_blocks: starting scan ...
heap block 'gridpts', handle 72, address 0x14259880:
	type of elements:		double precision
	number of elements:		5242762162
	address of client space:	0x14259900
	index for client space:		14093943
	total number of bytes:		41942097432
MA_summarize_allocated_blocks: scan completed: 1 heap block, 0 stack blocks
MA usage statistics:

	allocation statistics:
					      heap	     stack
					      ----	     -----
	current number of blocks	         1	         0
	maximum number of blocks	        18	        53
	current total bytes		41942097432	         0
	maximum total bytes		41943986032	  51809048
	maximum total K-bytes		  41943987	     51810
	maximum total M-bytes		     41944	        52


                                     CITATION
                                     --------
                Please cite the following reference when publishing
                           results obtained with NWChem:

          E. Apra, E. J. Bylaska, W. A. de Jong, N. Govind, K. Kowalski,
       T. P. Straatsma, M. Valiev, H. J. J. van Dam, Y. Alexeev, J. Anchell,
       V. Anisimov, F. W. Aquino, R. Atta-Fynn, J. Autschbach, N. P. Bauman,
     J. C. Becca, D. E. Bernholdt, K. Bhaskaran-Nair, S. Bogatko, P. Borowski,
         J. Boschen, J. Brabec, A. Bruner, E. Cauet, Y. Chen, G. N. Chuev,
      C. J. Cramer, J. Daily, M. J. O. Deegan, T. H. Dunning Jr., M. Dupuis,
   K. G. Dyall, G. I. Fann, S. A. Fischer, A. Fonari, H. Fruchtl, L. Gagliardi,
      J. Garza, N. Gawande, S. Ghosh, K. Glaesemann, A. W. Gotz, J. Hammond,
       V. Helms, E. D. Hermes, K. Hirao, S. Hirata, M. Jacquelin, L. Jensen,
   B. G. Johnson, H. Jonsson, R. A. Kendall, M. Klemm, R. Kobayashi, V. Konkov,
      S. Krishnamoorthy, M. Krishnan, Z. Lin, R. D. Lins, R. J. Littlefield,
      A. J. Logsdail, K. Lopata, W. Ma, A. V. Marenich, J. Martin del Campo,
   D. Mejia-Rodriguez, J. E. Moore, J. M. Mullin, T. Nakajima, D. R. Nascimento,
    J. A. Nichols, P. J. Nichols, J. Nieplocha, A. Otero-de-la-Roza, B. Palmer,
    A. Panyala, T. Pirojsirikul, B. Peng, R. Peverati, J. Pittner, L. Pollack,
   R. M. Richard, P. Sadayappan, G. C. Schatz, W. A. Shelton, D. W. Silverstein,
   D. M. A. Smith, T. A. Soares, D. Song, M. Swart, H. L. Taylor, G. S. Thomas,
            V. Tipparaju, D. G. Truhlar, K. Tsemekhman, T. Van Voorhis,
      A. Vazquez-Mayagoitia, P. Verma, O. Villa, A. Vishnu, K. D. Vogiatzis,
        D. Wang, J. H. Weare, M. J. Williamson, T. L. Windus, K. Wolinski,
        A. T. Wong, Q. Wu, C. Yang, Q. Yu, M. Zacharias, Z. Zhang, Y. Zhao,
                                and R. J. Harrison
                        "NWChem: Past, present, and future
                         J. Chem. Phys. 152, 184102 (2020)
                               doi:10.1063/5.0004997

                                      AUTHORS
                                      -------
  E. Apra, E. J. Bylaska, N. Govind, K. Kowalski, M. Valiev, D. Mejia-Rodriguez,
       A. Kunitsa, N. P. Bauman, A. Panyala, W. A. de Jong, T. P. Straatsma,
   H. J. J. van Dam, D. Wang, T. L. Windus, J. Hammond, J. Autschbach, A. Woods,
    K. Bhaskaran-Nair, J. Brabec, K. Lopata, S. A. Fischer, S. Krishnamoorthy,
     M. Jacquelin, W. Ma, M. Klemm, O. Villa, Y. Chen, V. Anisimov, F. Aquino,
     S. Hirata, M. T. Hackler, E. Hermes, L. Jensen, J. E. Moore, J. C. Becca,
      V. Konjkov, T. Risthaus, M. Malagoli, A. Marenich, A. Otero-de-la-Roza,
        J. Mullin, P. Nichols, R. Peverati, J. Pittner, Y. Zhao, P.-D. Fan,
        A. Fonari, M. J. Williamson, R. J. Harrison, J. R. Rehr, M. Dupuis,
     D. Silverstein, D. M. A. Smith, J. Nieplocha, V. Tipparaju, M. Krishnan,
     B. E. Van Kuiken, A. Vazquez-Mayagoitia, M. Swart, Q. Wu, T. Van Voorhis,
     A. A. Auer, M. Nooijen, L. D. Crosby, E. Brown, G. Cisneros, G. I. Fann,
   H. Fruchtl, J. Garza, K. Hirao, R. A. Kendall, J. A. Nichols, K. Tsemekhman,
    K. Wolinski, J. Anchell, D. E. Bernholdt, P. Borowski, T. Clark, D. Clerc,
   H. Dachsel, M. J. O. Deegan, K. Dyall, D. Elwood, E. Glendening, M. Gutowski,
   A. C. Hess, J. Jaffe, B. G. Johnson, J. Ju, R. Kobayashi, R. Kutteh, Z. Lin,
   R. Littlefield, X. Long, B. Meng, T. Nakajima, S. Niu, L. Pollack, M. Rosing,
   K. Glaesemann, G. Sandrone, M. Stave, H. Taylor, G. Thomas, J. H. van Lenthe,
                               A. T. Wong, Z. Zhang.

 Total times  cpu:     6911.3s     wall:     8257.8s
