 argument  1 = /home/aditisingh4812/nw_chem/nwchem-run/nwchem-run/tddft/closed/lcwpbe/geom-MOL/PP.nw
                                         
                                         


             Northwest Computational Chemistry Package (NWChem) 7.2.3
             --------------------------------------------------------


                    Environmental Molecular Sciences Laboratory
                       Pacific Northwest National Laboratory
                                Richland, WA 99352

                              Copyright (c) 1994-2022
                       Pacific Northwest National Laboratory
                            Battelle Memorial Institute

             NWChem is an open-source computational chemistry package
                        distributed under the terms of the
                      Educational Community License (ECL) 2.0
             A copy of the license is included with this distribution
                              in the LICENSE.TXT file

                                  ACKNOWLEDGMENT
                                  --------------

            This software and its documentation were developed at the
            EMSL at Pacific Northwest National Laboratory, a multiprogram
            national laboratory, operated for the U.S. Department of Energy
            by Battelle under Contract Number DE-AC05-76RL01830. Support
            for this work was provided by the Department of Energy Office
            of Biological and Environmental Research, Office of Basic
            Energy Sciences, and the Office of Advanced Scientific Computing.


           Job information
           ---------------

    hostname        = p20
    program         = /home/aditisingh4812/nw_chem/nwchem-7.2.3-release.revision-d690e065-srconly.2024-08-27/nwchem-7.2.3/bin/LINUX64/nwchem
    date            = Wed Apr  9 04:34:05 2025

    compiled        = Mon_Apr_07_18:51:54_2025
    source          = /home/aditisingh4812/nw_chem/nwchem-7.2.3-release.revision-d690e065-srconly.2024-08-27/nwchem-7.2.3
    nwchem branch   = 7.2.3
    nwchem revision = d690e065
    ga revision     = 5.8.0
    use scalapack   = F
    input           = /home/aditisingh4812/nw_chem/nwchem-run/nwchem-run/tddft/closed/lcwpbe/geom-MOL/PP.nw
    prefix          = PP.
    data base       = ./PP.db
    status          = startup
    nproc           =       48
    time left       =     -1s



           Memory information
           ------------------

    heap     = ********** doubles = 100000.0 Mbytes
    stack    = ********** doubles = 100000.0 Mbytes
    global   = ********** doubles = 100000.0 Mbytes (distinct from heap & stack)
    total    = ********** doubles = 300000.0 Mbytes
    verify   = yes
    hardfail = no 


           Directory information
           ---------------------

  0 permanent = .
  0 scratch   = .




                                NWChem Input Module
                                -------------------



 Scaling coordinates for geometry "geometry" by  1.889725989
 (inverse scale =  0.529177249)



                             Geometry "geometry" -> ""
                             -------------------------

 Output coordinates in angstroms (scale by  1.889725989 to convert to a.u.)

  No.       Tag          Charge          X              Y              Z
 ---- ---------------- ---------- -------------- -------------- --------------
    1 C                    6.0000     0.00000000     0.00000000     0.40980205
    2 C                    6.0000     1.20097500     0.00000000     1.11890705
    3 C                    6.0000    -1.20097500     0.00000000     1.11890705
    4 C                    6.0000     0.00000000     0.00000000     3.21440505
    5 C                    6.0000     1.19693800     0.00000000     2.50767705
    6 C                    6.0000    -1.19693800     0.00000000     2.50767705
    7 C                    6.0000     1.11756600     0.00000000    -1.80815895
    8 C                    6.0000    -1.11756600     0.00000000    -1.80815895
    9 C                    6.0000     0.71152100     0.00000000    -3.11595595
   10 C                    6.0000    -0.71152100     0.00000000    -3.11595595
   11 N                    7.0000     0.00000000     0.00000000    -0.99838095
   12 H                    1.0000     2.14067900     0.00000000     0.59677405
   13 H                    1.0000    -2.14067900     0.00000000     0.59677405
   14 H                    1.0000     2.13744600     0.00000000     3.03422805
   15 H                    1.0000    -2.13744600     0.00000000     3.03422805
   16 H                    1.0000     0.00000000     0.00000000     4.29128905
   17 H                    1.0000     2.10609300     0.00000000    -1.39937495
   18 H                    1.0000    -2.10609300     0.00000000    -1.39937495
   19 H                    1.0000     1.35995100     0.00000000    -3.97037495
   20 H                    1.0000    -1.35995100     0.00000000    -3.97037495

      Atomic Mass 
      ----------- 

      C                 12.000000
      N                 14.003070
      H                  1.007825


 Effective nuclear repulsion energy (a.u.)     544.4927645572

            Nuclear Dipole moment (a.u.) 
            ----------------------------
        X                 Y               Z
 ---------------- ---------------- ----------------
     0.0000000000     0.0000000000     0.0000000000


            XYZ format geometry
            -------------------
    20
 geometry
 C                     0.00000000     0.00000000     0.40980205
 C                     1.20097500     0.00000000     1.11890705
 C                    -1.20097500     0.00000000     1.11890705
 C                     0.00000000     0.00000000     3.21440505
 C                     1.19693800     0.00000000     2.50767705
 C                    -1.19693800     0.00000000     2.50767705
 C                     1.11756600     0.00000000    -1.80815895
 C                    -1.11756600     0.00000000    -1.80815895
 C                     0.71152100     0.00000000    -3.11595595
 C                    -0.71152100     0.00000000    -3.11595595
 N                     0.00000000     0.00000000    -0.99838095
 H                     2.14067900     0.00000000     0.59677405
 H                    -2.14067900     0.00000000     0.59677405
 H                     2.13744600     0.00000000     3.03422805
 H                    -2.13744600     0.00000000     3.03422805
 H                     0.00000000     0.00000000     4.29128905
 H                     2.10609300     0.00000000    -1.39937495
 H                    -2.10609300     0.00000000    -1.39937495
 H                     1.35995100     0.00000000    -3.97037495
 H                    -1.35995100     0.00000000    -3.97037495

 ==============================================================================
                                internuclear distances
 ------------------------------------------------------------------------------
       center one      |      center two      | atomic units |  angstroms
 ------------------------------------------------------------------------------
    2 C                |   1 C                |     2.63559  |     1.39469
    3 C                |   1 C                |     2.63559  |     1.39469
    5 C                |   2 C                |     2.62441  |     1.38878
    5 C                |   4 C                |     2.62674  |     1.39001
    6 C                |   3 C                |     2.62441  |     1.38878
    6 C                |   4 C                |     2.62674  |     1.39001
    9 C                |   7 C                |     2.58776  |     1.36938
   10 C                |   8 C                |     2.58776  |     1.36938
   10 C                |   9 C                |     2.68916  |     1.42304
   11 N                |   1 C                |     2.66108  |     1.40818
   11 N                |   7 C                |     2.60802  |     1.38011
   11 N                |   8 C                |     2.60802  |     1.38011
   12 H                |   2 C                |     2.03149  |     1.07502
   13 H                |   3 C                |     2.03149  |     1.07502
   14 H                |   5 C                |     2.03689  |     1.07787
   15 H                |   6 C                |     2.03689  |     1.07787
   16 H                |   4 C                |     2.03502  |     1.07688
   17 H                |   7 C                |     2.02147  |     1.06971
   18 H                |   8 C                |     2.02147  |     1.06971
   19 H                |   9 C                |     2.02694  |     1.07261
   20 H                |  10 C                |     2.02694  |     1.07261
 ------------------------------------------------------------------------------
                         number of included internuclear distances:         21
 ==============================================================================



 ==============================================================================
                                 internuclear angles
 ------------------------------------------------------------------------------
        center 1       |       center 2       |       center 3       |  degrees
 ------------------------------------------------------------------------------
    2 C                |   1 C                |   3 C                |   118.88
    2 C                |   1 C                |  11 N                |   120.56
    3 C                |   1 C                |  11 N                |   120.56
    1 C                |   2 C                |   5 C                |   120.39
    1 C                |   2 C                |  12 H                |   120.38
    5 C                |   2 C                |  12 H                |   119.22
    1 C                |   3 C                |   6 C                |   120.39
    1 C                |   3 C                |  13 H                |   120.38
    6 C                |   3 C                |  13 H                |   119.22
    5 C                |   4 C                |   6 C                |   118.88
    5 C                |   4 C                |  16 H                |   120.56
    6 C                |   4 C                |  16 H                |   120.56
    2 C                |   5 C                |   4 C                |   120.73
    2 C                |   5 C                |  14 H                |   119.08
    4 C                |   5 C                |  14 H                |   120.20
    3 C                |   6 C                |   4 C                |   120.73
    3 C                |   6 C                |  15 H                |   119.08
    4 C                |   6 C                |  15 H                |   120.20
    9 C                |   7 C                |  11 N                |   108.68
    9 C                |   7 C                |  17 H                |   129.72
   11 N                |   7 C                |  17 H                |   121.61
   10 C                |   8 C                |  11 N                |   108.68
   10 C                |   8 C                |  18 H                |   129.72
   11 N                |   8 C                |  18 H                |   121.61
    7 C                |   9 C                |  10 C                |   107.25
    7 C                |   9 C                |  19 H                |   125.56
   10 C                |   9 C                |  19 H                |   127.20
    8 C                |  10 C                |   9 C                |   107.25
    8 C                |  10 C                |  20 H                |   125.56
    9 C                |  10 C                |  20 H                |   127.20
    1 C                |  11 N                |   7 C                |   125.93
    1 C                |  11 N                |   8 C                |   125.93
    7 C                |  11 N                |   8 C                |   108.15
 ------------------------------------------------------------------------------
                            number of included internuclear angles:         33
 ==============================================================================





 Summary of "ao basis" -> "" (cartesian)
 ------------------------------------------------------------------------------
       Tag                 Description            Shells   Functions and Types
 ---------------- ------------------------------  ------  ---------------------
 *                         def2-TZVPD                 on all atoms 


  pbe96 is a nonlocal functional; adding pw91lda local functional. 

                                 NWChem DFT Module
                                 -----------------


                      Basis "ao basis" -> "ao basis" (cartesian)
                      -----
  C (Carbon)
  ----------
            Exponent  Coefficients 
       -------------- ---------------------------------------------------------
  1 S  1.35753497E+04  0.000222
  1 S  2.03523337E+03  0.001723
  1 S  4.63225624E+02  0.008926
  1 S  1.31200196E+02  0.035728
  1 S  4.28530159E+01  0.110763
  1 S  1.55841858E+01  0.242956

  2 S  6.20671385E+00  0.414403
  2 S  2.57648965E+00  0.237450

  3 S  5.76963394E-01  1.000000

  4 S  2.29728314E-01  1.000000

  5 S  9.51644400E-02  1.000000

  6 S  4.84754014E-02  1.000000

  7 P  3.46972322E+01  0.005333
  7 P  7.95826228E+00  0.035864
  7 P  2.37808269E+00  0.142159
  7 P  8.14332082E-01  0.342705

  8 P  2.88875473E-01  1.000000

  9 P  1.00568237E-01  1.000000

 10 D  1.09700000E+00  1.000000

 11 D  3.18000000E-01  1.000000

 12 D  9.09853364E-02  1.000000

 13 F  7.61000000E-01  1.000000

  N (Nitrogen)
  ------------
            Exponent  Coefficients 
       -------------- ---------------------------------------------------------
  1 S  1.97308006E+04  0.000219
  1 S  2.95789587E+03  0.001696
  1 S  6.73221336E+02  0.008795
  1 S  1.90682495E+02  0.035359
  1 S  6.22954419E+01  0.110958
  1 S  2.26541612E+01  0.249830

  2 S  8.97914774E+00  0.406239
  2 S  3.68630024E+00  0.243382

  3 S  8.46600768E-01  1.000000

  4 S  3.36471338E-01  1.000000

  5 S  1.36476537E-01  1.000000

  6 S  6.84416058E-02  1.000000

  7 P  4.92003805E+01  0.005555
  7 P  1.13467905E+01  0.038052
  7 P  3.42739724E+00  0.149537
  7 P  1.17855251E+00  0.349493

  8 P  4.16422050E-01  1.000000

  9 P  1.42608260E-01  1.000000

 10 D  1.65400000E+00  1.000000

 11 D  4.69000000E-01  1.000000

 12 D  1.28296421E-01  1.000000

 13 F  1.09300000E+00  1.000000

  H (Hydrogen)
  ------------
            Exponent  Coefficients 
       -------------- ---------------------------------------------------------
  1 S  3.40613410E+01  0.006025
  1 S  5.12357460E+00  0.045021
  1 S  1.16466260E+00  0.201897

  2 S  3.27230410E-01  1.000000

  3 S  1.03072410E-01  1.000000

  4 P  8.00000000E-01  1.000000

  5 P  9.57741296E-02  1.000000



 Summary of "ao basis" -> "ao basis" (cartesian)
 ------------------------------------------------------------------------------
       Tag                 Description            Shells   Functions and Types
 ---------------- ------------------------------  ------  ---------------------
 C                         def2-TZVPD               13       43   6s3p3d1f
 N                         def2-TZVPD               13       43   6s3p3d1f
 H                         def2-TZVPD                5        9   3s2p




 Summary of "ao basis" -> "ao basis" (cartesian)
 ------------------------------------------------------------------------------
       Tag                 Description            Shells   Functions and Types
 ---------------- ------------------------------  ------  ---------------------
 C                         def2-TZVPD               13       43   6s3p3d1f
 N                         def2-TZVPD               13       43   6s3p3d1f
 H                         def2-TZVPD                5        9   3s2p


  int_init: cando_txs set to always be  F
  Caching 1-el integrals 

            General Information
            -------------------
          SCF calculation type: DFT
          Wavefunction type:  closed shell.
          No. of atoms     :    20
          No. of electrons :    76
           Alpha electrons :    38
            Beta electrons :    38
          Charge           :     0
          Spin multiplicity:     1
          Use of symmetry is: off; symmetry adaption is: off
          Maximum number of iterations:  50
          AO basis - number of functions:   554
                     number of shells:   188
          Convergence on energy requested:  1.00D-06
          Convergence on density requested:  1.00D-05
          Convergence on gradient requested:  5.00D-04

              XC Information
              --------------
                     Hartree-Fock (Exact) Exchange  1.000          
                     LC-wPBE(h)Exchange Functional  1.000          
            Perdew 1991 LDA Correlation Functional  1.000 local    
           PerdewBurkeErnz. Correlation Functional  1.000 non-local

           Range-Separation Parameters        
           ---------------------------
           Alpha           :  0.00
           Beta            :  1.00
           Gamma           :  0.26
           Short-Range HF  :     F

             Grid Information
             ----------------
          Grid used for XC integration:  xfine     
          Radial quadrature: Mura-Knowles        
          Angular quadrature: Lebedev. 
          Tag              B.-S. Rad. Rad. Pts. Rad. Cut. Ang. Pts.
          ---              ---------- --------- --------- ---------
          C                   0.70      100          17.0      1454
          N                   0.65      100          14.0      1454
          H                   0.35      100          19.0      1202
          Grid pruning is: on 
          Number of quadrature shells:  2000
          Spatial weights used:  Erf1

          Convergence Information
          -----------------------
          Convergence aids based upon iterative change in 
          total energy or number of iterations. 
          Levelshifting, if invoked, occurs when the 
          HOMO/LUMO gap drops below (HL_TOL):  1.00D-02
          DIIS, if invoked, will attempt to extrapolate 
          using up to (NFOCK): 10 stored Fock matrices.

                    Damping( 0%)  Levelshifting(0.5)       DIIS
                  --------------- ------------------- ---------------
          dE  on:    start            ASAP                start   
          dE off:    2 iters         50 iters            50 iters 


      Screening Tolerance Information
      -------------------------------
          Density screening/tol_rho:  1.00D-10
          AO Gaussian exp screening on grid/accAOfunc:  14
          CD Gaussian exp screening on grid/accCDfunc:  20
          XC Gaussian exp screening on grid/accXCfunc:  20
          Schwarz screening/accCoul:  1.00D-08

  
  CAM type calculations without CDFIT are
  only available with the direct option.
  Forcing Direct SCF
  

 WARNING : Found    18 linear dependencies 
 S eigenvalue threshold:     1.00000E-05
 Smallest S eigenvalue :     1.75162E-08
 Largest  S eigenvalue :     8.55774E-06


 !! The overlap matrix has  18 vectors deemed linearly dependent with
    eigenvalues:
 1.75D-08 1.59D-07 4.18D-07 5.55D-07 5.99D-07 7.89D-07 1.01D-06 1.17D-06
 1.75D-06 2.13D-06 2.38D-06 2.48D-06 3.57D-06 3.59D-06 5.08D-06 5.91D-06
 6.48D-06 8.56D-06


      Superposition of Atomic Density Guess
      -------------------------------------

 Sum of atomic energies:        -435.52314647

      Non-variational initial energy
      ------------------------------

 Total energy =    -443.930835
 1-e energy   =   -1664.402832
 2-e energy   =     675.979232
 HOMO         =      -0.247859
 LUMO         =      -0.023596

  WARNING: movecs_in_org=atomic not equal to movecs_in=./PP.movecs
   Time after variat. SCF:     33.3
   Time prior to 1st pass:     33.3

 Grid_pts file          = ./PP.gridpts.00
 Record size in doubles =  12289        No. of grid_pts per rec  =   3070
 Max. records in memory =     23        Max. recs in file   =  21109390

 Grid integrated density:      76.096665558431
 Requested integration accuracy:   0.10E-07

           Memory utilization after 1st SCF pass: 
           Heap Space remaining (MW):     7864.16          7864156892
          Stack Space remaining (MW):    13107.20         13107196660

   convergence    iter        energy       DeltaE   RMS-Dens  Diis-err    time
 ---------------- ----- ----------------- --------- --------- ---------  ------
 d= 0,ls=0.0,diis     1   -437.9396101964 -9.82D+02  1.38D+02  2.25D+04   119.1
 Grid integrated density:      75.999989970440
 Requested integration accuracy:   0.10E-07
 d= 0,ls=0.5,diis     2   -412.9345499744  2.50D+01  1.24D+02  1.86D+02   215.3
 Grid integrated density:      76.000001032797
 Requested integration accuracy:   0.10E-07
 d= 0,ls=0.5,diis     3   -434.1164787121 -2.12D+01  6.02D+01  4.12D+01   310.0
 d= 0,ls=0.5,diis     4   -434.9633421316 -8.47D-01  3.11D-01  2.49D+01   398.4
 d= 0,ls=0.5,diis     5   -440.6352973914 -5.67D+00  3.60D-02  1.95D+00   504.8
 d= 0,ls=0.5,diis     6   -440.8216809953 -1.86D-01  7.07D-03  6.87D-01   591.6
 d= 0,ls=0.5,diis     7   -440.9092084992 -8.75D-02  2.44D-03  1.91D-01   679.3
  Resetting Diis
 d= 0,ls=0.5,diis     8   -440.9443716417 -3.52D-02  9.23D-04  3.10D-02   770.9
 Grid integrated density:      75.999998970737
 Requested integration accuracy:   0.10E-07
 d= 0,ls=0.5,diis     9   -440.9526566425 -8.29D-03  7.68D-04  5.57D-03   867.1
 Grid integrated density:      75.999998963703
 Requested integration accuracy:   0.10E-07
 d= 0,ls=0.5,diis    10   -440.9545999780 -1.94D-03  3.14D-04  2.12D-03   951.8
 Grid integrated density:      75.999998960414
 Requested integration accuracy:   0.10E-07
 d= 0,ls=0.5,diis    11   -440.9553932604 -7.93D-04  1.93D-04  8.74D-04  1039.2
 Grid integrated density:      75.999998956877
 Requested integration accuracy:   0.10E-07
 d= 0,ls=0.5,diis    12   -440.9558178810 -4.25D-04  6.63D-05  3.31D-04  1125.2
 Grid integrated density:      75.999998954108
 Requested integration accuracy:   0.10E-07
 d= 0,ls=0.5,diis    13   -440.9559684708 -1.51D-04  3.03D-05  1.10D-04  1211.7
 Grid integrated density:      75.999998951500
 Requested integration accuracy:   0.10E-07
 d= 0,ls=0.5,diis    14   -440.9560250972 -5.66D-05  1.93D-05  4.46D-05  1300.1
 Grid integrated density:      75.999998949784
 Requested integration accuracy:   0.10E-07
 d= 0,ls=0.5,diis    15   -440.9560454273 -2.03D-05  1.14D-05  1.59D-05  1387.7
 Grid integrated density:      75.999998948504
 Requested integration accuracy:   0.10E-07
 d= 0,ls=0.5,diis    16   -440.9560525300 -7.10D-06  6.45D-06  5.68D-06  1481.4
 Grid integrated density:      75.999998947651
 Requested integration accuracy:   0.10E-07
 d= 0,ls=0.5,diis    17   -440.9560550178 -2.49D-06  3.62D-06  1.96D-06  1570.1
 Grid integrated density:      75.999998947132
 Requested integration accuracy:   0.10E-07
 d= 0,ls=0.5,diis    18   -440.9560558716 -8.54D-07  2.04D-06  6.39D-07  1658.3
 Grid integrated density:      75.999998946811
 Requested integration accuracy:   0.10E-07


         Total DFT energy =     -440.956056159768
      One electron energy =    -1673.777345527453
           Coulomb energy =      752.520571635109
    Exchange-Corr. energy =      -64.192046824637
 Nuclear repulsion energy =      544.492764557213

 Numeric. integr. density =       75.999998946811

     Total iterative time =   1732.8s



                       DFT Final Molecular Orbital Analysis
                       ------------------------------------

 Vector    1  Occ=2.000000D+00  E=-1.419598D+01
              MO Center=  1.3D-09,  2.3D-13, -1.0D+00, r^2= 2.0D-02
   Bfn.  Coefficient  Atom+Function         Bfn.  Coefficient  Atom+Function  
  ----- ------------  ---------------      ----- ------------  ---------------
   432      0.619083  11 N  s               431      0.449484  11 N  s         
   434     -0.108927  11 N  s               433      0.099663  11 N  s         

 Vector    2  Occ=2.000000D+00  E=-1.009431D+01
              MO Center= -6.4D-09,  3.0D-13,  4.1D-01, r^2= 2.8D-02
   Bfn.  Coefficient  Atom+Function         Bfn.  Coefficient  Atom+Function  
  ----- ------------  ---------------      ----- ------------  ---------------
     2      0.599493   1 C  s                 1      0.468109   1 C  s         
     3      0.100869   1 C  s                 4     -0.099687   1 C  s         

 Vector    3  Occ=2.000000D+00  E=-1.005406D+01
              MO Center=  4.5D-01,  5.2D-13, -1.8D+00, r^2= 1.1D+00
   Bfn.  Coefficient  Atom+Function         Bfn.  Coefficient  Atom+Function  
  ----- ------------  ---------------      ----- ------------  ---------------
   260      0.501629   7 C  s               259      0.391717   7 C  s         
   303     -0.328117   8 C  s               302     -0.256223   8 C  s         
   261      0.084986   7 C  s               262     -0.083992   7 C  s         
   304     -0.055379   8 C  s               305      0.054189   8 C  s         

 Vector    4  Occ=2.000000D+00  E=-1.005404D+01
              MO Center= -4.5D-01, -6.0D-13, -1.8D+00, r^2= 1.1D+00
   Bfn.  Coefficient  Atom+Function         Bfn.  Coefficient  Atom+Function  
  ----- ------------  ---------------      ----- ------------  ---------------
   303      0.501633   8 C  s               302      0.391720   8 C  s         
   260      0.328122   7 C  s               259      0.256228   7 C  s         
   304      0.085468   8 C  s               305     -0.085708   8 C  s         
   262     -0.056812   7 C  s               261      0.056116   7 C  s         

 Vector    5  Occ=2.000000D+00  E=-1.004750D+01
              MO Center= -4.5D-01, -1.4D-13,  2.4D+00, r^2= 1.3D+00
   Bfn.  Coefficient  Atom+Function         Bfn.  Coefficient  Atom+Function  
  ----- ------------  ---------------      ----- ------------  ---------------
   217      0.485697   6 C  s               216      0.379261   6 C  s         
   174      0.326568   5 C  s               173      0.255005   5 C  s         
    88      0.105990   3 C  s               218      0.083497   6 C  s         
    87      0.082755   3 C  s               219     -0.082995   6 C  s         
    45      0.069126   2 C  s               175      0.056146   5 C  s         

 Vector    6  Occ=2.000000D+00  E=-1.004750D+01
              MO Center=  4.5D-01,  2.1D-13,  2.4D+00, r^2= 1.3D+00
   Bfn.  Coefficient  Atom+Function         Bfn.  Coefficient  Atom+Function  
  ----- ------------  ---------------      ----- ------------  ---------------
   174      0.484915   5 C  s               173      0.378646   5 C  s         
   217     -0.325411   6 C  s               216     -0.254095   6 C  s         
    45      0.111128   2 C  s                44      0.086772   2 C  s         
   175      0.083350   5 C  s               176     -0.082733   5 C  s         
    88     -0.076744   3 C  s                87     -0.059926   3 C  s         

 Vector    7  Occ=2.000000D+00  E=-1.004649D+01
              MO Center= -5.9D-01, -6.0D-13,  1.2D+00, r^2= 1.2D+00
   Bfn.  Coefficient  Atom+Function         Bfn.  Coefficient  Atom+Function  
  ----- ------------  ---------------      ----- ------------  ---------------
    88      0.505036   3 C  s                87      0.394389   3 C  s         
    45      0.296851   2 C  s                44      0.231817   2 C  s         
   217     -0.110399   6 C  s                89      0.086727   3 C  s         
    90     -0.085817   3 C  s               216     -0.086218   6 C  s         
   174     -0.062095   5 C  s                46      0.051012   2 C  s         

 Vector    8  Occ=2.000000D+00  E=-1.004648D+01
              MO Center=  5.9D-01, -5.4D-13,  1.2D+00, r^2= 1.2D+00
   Bfn.  Coefficient  Atom+Function         Bfn.  Coefficient  Atom+Function  
  ----- ------------  ---------------      ----- ------------  ---------------
    45      0.504002   2 C  s                44      0.393577   2 C  s         
    88     -0.295096   3 C  s                87     -0.230438   3 C  s         
   174     -0.115181   5 C  s               173     -0.089947   5 C  s         
    46      0.086486   2 C  s                47     -0.085333   2 C  s         
   217      0.070213   6 C  s               216      0.054827   6 C  s         

 Vector    9  Occ=2.000000D+00  E=-1.004112D+01
              MO Center=  1.1D-06,  2.5D-13,  3.2D+00, r^2= 3.2D-02
   Bfn.  Coefficient  Atom+Function         Bfn.  Coefficient  Atom+Function  
  ----- ------------  ---------------      ----- ------------  ---------------
   131      0.598734   4 C  s               130      0.467541   4 C  s         
   132      0.102933   4 C  s               133     -0.102021   4 C  s         

 Vector   10  Occ=2.000000D+00  E=-1.002175D+01
              MO Center= -6.3D-03, -9.1D-13, -3.1D+00, r^2= 5.3D-01
   Bfn.  Coefficient  Atom+Function         Bfn.  Coefficient  Atom+Function  
  ----- ------------  ---------------      ----- ------------  ---------------
   389      0.425692  10 C  s               346      0.421929   9 C  s         
   388      0.332417  10 C  s               345      0.329478   9 C  s         
   390      0.073472  10 C  s               391     -0.073192  10 C  s         
   347      0.072827   9 C  s               348     -0.072557   9 C  s         

 Vector   11  Occ=2.000000D+00  E=-1.002143D+01
              MO Center=  6.3D-03, -8.6D-13, -3.1D+00, r^2= 5.3D-01
   Bfn.  Coefficient  Atom+Function         Bfn.  Coefficient  Atom+Function  
  ----- ------------  ---------------      ----- ------------  ---------------
   346      0.425737   9 C  s               389     -0.421974  10 C  s         
   345      0.332460   9 C  s               388     -0.329522  10 C  s         
   347      0.073055   9 C  s               390     -0.072405  10 C  s         
   348     -0.071843   9 C  s               391      0.071196  10 C  s         

 Vector   12  Occ=2.000000D+00  E=-1.069344D+00
              MO Center=  5.3D-06, -1.1D-09, -1.2D+00, r^2= 1.2D+00
   Bfn.  Coefficient  Atom+Function         Bfn.  Coefficient  Atom+Function  
  ----- ------------  ---------------      ----- ------------  ---------------
   434      0.313751  11 N  s               433      0.272361  11 N  s         
   432     -0.178707  11 N  s               261      0.120081   7 C  s         
   304      0.120078   8 C  s                 3      0.107503   1 C  s         
   262      0.088683   7 C  s               305      0.088680   8 C  s         
   431     -0.082171  11 N  s               260     -0.076062   7 C  s         

 Vector   13  Occ=2.000000D+00  E=-9.489263D-01
              MO Center= -9.3D-06, -2.0D-10,  1.2D+00, r^2= 3.7D+00
   Bfn.  Coefficient  Atom+Function         Bfn.  Coefficient  Atom+Function  
  ----- ------------  ---------------      ----- ------------  ---------------
     3      0.161577   1 C  s                 4      0.161205   1 C  s         
    46      0.140034   2 C  s                89      0.140036   3 C  s         
   175      0.128451   5 C  s               218      0.128453   6 C  s         
   132      0.122167   4 C  s                47      0.106184   2 C  s         
    90      0.106187   3 C  s               176      0.103059   5 C  s         

 Vector   14  Occ=2.000000D+00  E=-8.854583D-01
              MO Center= -7.0D-08, -2.0D-11, -3.5D-01, r^2= 6.9D+00
   Bfn.  Coefficient  Atom+Function         Bfn.  Coefficient  Atom+Function  
  ----- ------------  ---------------      ----- ------------  ---------------
     4      0.153223   1 C  s               347     -0.147694   9 C  s         
   390     -0.147693  10 C  s               132     -0.138962   4 C  s         
   434      0.126288  11 N  s               133     -0.119428   4 C  s         
   348     -0.115878   9 C  s               391     -0.115878  10 C  s         
   439      0.114972  11 N  pz                3      0.112797   1 C  s         

 Vector   15  Occ=2.000000D+00  E=-8.427325D-01
              MO Center=  9.6D-06,  4.2D-10,  1.3D+00, r^2= 3.8D+00
   Bfn.  Coefficient  Atom+Function         Bfn.  Coefficient  Atom+Function  
  ----- ------------  ---------------      ----- ------------  ---------------
    46      0.181104   2 C  s                89     -0.181104   3 C  s         
    47      0.175414   2 C  s                90     -0.175414   3 C  s         
   175      0.160075   5 C  s               218     -0.160072   6 C  s         
   176      0.140958   5 C  s               219     -0.140957   6 C  s         
    45     -0.110564   2 C  s                88      0.110563   3 C  s         

 Vector   16  Occ=2.000000D+00  E=-8.113252D-01
              MO Center= -1.3D-05, -2.6D-10,  3.3D-01, r^2= 7.5D+00
   Bfn.  Coefficient  Atom+Function         Bfn.  Coefficient  Atom+Function  
  ----- ------------  ---------------      ----- ------------  ---------------
   132      0.174562   4 C  s               133      0.174600   4 C  s         
   434      0.153873  11 N  s                 3     -0.136497   1 C  s         
     4     -0.133801   1 C  s               347     -0.132992   9 C  s         
   390     -0.132996  10 C  s               348     -0.119756   9 C  s         
   391     -0.119760  10 C  s               433      0.115469  11 N  s         

 Vector   17  Occ=2.000000D+00  E=-8.072400D-01
              MO Center=  1.8D-05,  5.4D-11, -1.3D+00, r^2= 4.4D+00
   Bfn.  Coefficient  Atom+Function         Bfn.  Coefficient  Atom+Function  
  ----- ------------  ---------------      ----- ------------  ---------------
   262      0.217965   7 C  s               305     -0.217958   8 C  s         
   261      0.205142   7 C  s               304     -0.205139   8 C  s         
   437      0.155254  11 N  px              260     -0.125887   7 C  s         
   303      0.125886   8 C  s               521     -0.120502  17 H  s         
   530      0.120511  18 H  s               347      0.101671   9 C  s         

 Vector   18  Occ=2.000000D+00  E=-7.133050D-01
              MO Center= -5.2D-06, -2.2D-10,  1.5D-01, r^2= 7.6D+00
   Bfn.  Coefficient  Atom+Function         Bfn.  Coefficient  Atom+Function  
  ----- ------------  ---------------      ----- ------------  ---------------
     4      0.190724   1 C  s               439      0.180822  11 N  pz        
   133      0.167616   4 C  s               132      0.147977   4 C  s         
     3      0.128601   1 C  s               348      0.117993   9 C  s         
   391      0.117993  10 C  s                47     -0.110652   2 C  s         
    90     -0.110657   3 C  s               347      0.099707   9 C  s         

 Vector   19  Occ=2.000000D+00  E=-7.069322D-01
              MO Center=  5.0D-06,  1.3D-10,  8.6D-01, r^2= 6.4D+00
   Bfn.  Coefficient  Atom+Function         Bfn.  Coefficient  Atom+Function  
  ----- ------------  ---------------      ----- ------------  ---------------
   176     -0.172214   5 C  s               219      0.172216   6 C  s         
     7      0.159584   1 C  px               47      0.146875   2 C  s         
    90     -0.146871   3 C  s               175     -0.144915   5 C  s         
   218      0.144917   6 C  s               136     -0.129600   4 C  px        
    46      0.124347   2 C  s                89     -0.124343   3 C  s         

 Vector   20  Occ=2.000000D+00  E=-6.509819D-01
              MO Center= -9.5D-06,  1.3D-10,  6.9D-01, r^2= 6.6D+00
   Bfn.  Coefficient  Atom+Function         Bfn.  Coefficient  Atom+Function  
  ----- ------------  ---------------      ----- ------------  ---------------
     9      0.174920   1 C  pz               50     -0.142606   2 C  px        
    93      0.142608   3 C  px              439     -0.138109  11 N  pz        
   179     -0.120714   5 C  px              222      0.120716   6 C  px        
    12      0.100603   1 C  pz                3      0.096190   1 C  s         
   445     -0.093194  11 N  pz              493     -0.090752  14 H  s         

 Vector   21  Occ=2.000000D+00  E=-6.479179D-01
              MO Center=  1.2D-05,  7.5D-11, -1.4D+00, r^2= 6.7D+00
   Bfn.  Coefficient  Atom+Function         Bfn.  Coefficient  Atom+Function  
  ----- ------------  ---------------      ----- ------------  ---------------
   437     -0.190092  11 N  px              348      0.178335   9 C  s         
   391     -0.178328  10 C  s               347      0.152756   9 C  s         
   390     -0.152751  10 C  s               267     -0.148171   7 C  pz        
   310      0.148168   8 C  pz              440     -0.113930  11 N  px        
    30     -0.096529   1 C  dxz             262     -0.092599   7 C  s         

 Vector   22  Occ=2.000000D+00  E=-6.413182D-01
              MO Center=  1.6D-05,  4.8D-11, -1.5D+00, r^2= 4.9D+00
   Bfn.  Coefficient  Atom+Function         Bfn.  Coefficient  Atom+Function  
  ----- ------------  ---------------      ----- ------------  ---------------
   262      0.159751   7 C  s               305      0.159759   8 C  s         
   265      0.157799   7 C  px              308     -0.157789   8 C  px        
   261      0.149682   7 C  s               304      0.149690   8 C  s         
   520      0.145361  17 H  s               529      0.145360  18 H  s         
   434     -0.117043  11 N  s               519      0.109720  17 H  s         

 Vector   23  Occ=2.000000D+00  E=-5.883839D-01
              MO Center= -1.5D-06, -2.1D-10,  1.3D+00, r^2= 8.1D+00
   Bfn.  Coefficient  Atom+Function         Bfn.  Coefficient  Atom+Function  
  ----- ------------  ---------------      ----- ------------  ---------------
   138      0.198295   4 C  pz              511      0.153946  16 H  s         
    33      0.127401   1 C  dzz              52     -0.117146   2 C  pz        
    95     -0.117147   3 C  pz              144      0.116194   4 C  pz        
   510      0.114514  16 H  s               436     -0.100575  11 N  s         
   133      0.098261   4 C  s               141      0.093665   4 C  pz        

 Vector   24  Occ=2.000000D+00  E=-5.477235D-01
              MO Center= -1.0D-05,  8.7D-11,  7.7D-01, r^2= 5.9D+00
   Bfn.  Coefficient  Atom+Function         Bfn.  Coefficient  Atom+Function  
  ----- ------------  ---------------      ----- ------------  ---------------
     7      0.218550   1 C  px              136      0.176053   4 C  px        
   181      0.136391   5 C  pz              224     -0.136394   6 C  pz        
    52     -0.133095   2 C  pz               95      0.133096   3 C  pz        
    10      0.129706   1 C  px               50     -0.129139   2 C  px        
    93     -0.129143   3 C  px              139      0.103952   4 C  px        

 Vector   25  Occ=2.000000D+00  E=-5.443989D-01
              MO Center= -5.8D-07,  7.8D-11,  6.9D-01, r^2= 8.9D+00
   Bfn.  Coefficient  Atom+Function         Bfn.  Coefficient  Atom+Function  
  ----- ------------  ---------------      ----- ------------  ---------------
     4      0.140044   1 C  s               179      0.131486   5 C  px        
   222     -0.131493   6 C  px              493      0.128833  14 H  s         
   502      0.128836  15 H  s                 3      0.124802   1 C  s         
   353      0.123467   9 C  pz              396      0.123467  10 C  pz        
    33      0.104968   1 C  dzz              50     -0.099547   2 C  px        

 Vector   26  Occ=2.000000D+00  E=-5.344781D-01
              MO Center=  4.8D-06,  1.5D-09, -8.1D-01, r^2= 2.8D+00
   Bfn.  Coefficient  Atom+Function         Bfn.  Coefficient  Atom+Function  
  ----- ------------  ---------------      ----- ------------  ---------------
   438      0.274829  11 N  py              441      0.234568  11 N  py        
     8      0.163667   1 C  py               11      0.131679   1 C  py        
   266      0.131397   7 C  py              309      0.131393   8 C  py        
   444      0.122687  11 N  py              269      0.111084   7 C  py        
   312      0.111080   8 C  py               51      0.079630   2 C  py        

 Vector   27  Occ=2.000000D+00  E=-5.194844D-01
              MO Center= -6.8D-06, -5.8D-12,  7.8D-01, r^2= 5.6D+00
   Bfn.  Coefficient  Atom+Function         Bfn.  Coefficient  Atom+Function  
  ----- ------------  ---------------      ----- ------------  ---------------
    30      0.175492   1 C  dxz             181      0.162344   5 C  pz        
   224     -0.162346   6 C  pz               52     -0.160158   2 C  pz        
    95      0.160159   3 C  pz               13     -0.141361   1 C  px        
   159     -0.137021   4 C  dxz             437     -0.132916  11 N  px        
   187      0.128957   5 C  pz              230     -0.128955   6 C  pz        

 Vector   28  Occ=2.000000D+00  E=-5.099534D-01
              MO Center= -2.0D-08,  2.1D-11, -5.2D-01, r^2= 8.6D+00
   Bfn.  Coefficient  Atom+Function         Bfn.  Coefficient  Atom+Function  
  ----- ------------  ---------------      ----- ------------  ---------------
   439     -0.183633  11 N  pz                9      0.182432   1 C  pz        
   138      0.154155   4 C  pz              353     -0.152748   9 C  pz        
   396     -0.152746  10 C  pz              442     -0.119905  11 N  pz        
   267      0.111980   7 C  pz              310      0.111979   8 C  pz        
   538      0.105700  19 H  s               547      0.105698  20 H  s         

 Vector   29  Occ=2.000000D+00  E=-5.007567D-01
              MO Center=  2.1D-06,  6.3D-11,  1.1D-01, r^2= 7.2D+00
   Bfn.  Coefficient  Atom+Function         Bfn.  Coefficient  Atom+Function  
  ----- ------------  ---------------      ----- ------------  ---------------
   437     -0.187296  11 N  px              265      0.173056   7 C  px        
   308      0.173056   8 C  px              179     -0.149484   5 C  px        
   222     -0.149481   6 C  px              443     -0.126050  11 N  px        
   136      0.122794   4 C  px              520      0.121477  17 H  s         
   529     -0.121478  18 H  s               440     -0.114390  11 N  px        

 Vector   30  Occ=2.000000D+00  E=-4.691815D-01
              MO Center= -4.9D-06,  7.3D-10,  1.0D+00, r^2= 5.6D+00
   Bfn.  Coefficient  Atom+Function         Bfn.  Coefficient  Atom+Function  
  ----- ------------  ---------------      ----- ------------  ---------------
   137      0.153264   4 C  py              180      0.152009   5 C  py        
   223      0.152011   6 C  py               51      0.140525   2 C  py        
    94      0.140526   3 C  py              183      0.132170   5 C  py        
   226      0.132172   6 C  py              140      0.131284   4 C  py        
    54      0.120795   2 C  py               97      0.120797   3 C  py        

 Vector   31  Occ=2.000000D+00  E=-4.681557D-01
              MO Center=  2.2D-05, -2.8D-11, -2.6D+00, r^2= 3.9D+00
   Bfn.  Coefficient  Atom+Function         Bfn.  Coefficient  Atom+Function  
  ----- ------------  ---------------      ----- ------------  ---------------
   353      0.223976   9 C  pz              396     -0.223965  10 C  pz        
   267     -0.182596   7 C  pz              310      0.182563   8 C  pz        
   359      0.167505   9 C  pz              402     -0.167508  10 C  pz        
   538     -0.149491  19 H  s               547      0.149510  20 H  s         
    30     -0.117050   1 C  dxz             356      0.116932   9 C  pz        

 Vector   32  Occ=2.000000D+00  E=-4.603230D-01
              MO Center= -4.3D-05,  5.1D-11, -1.7D+00, r^2= 6.7D+00
   Bfn.  Coefficient  Atom+Function         Bfn.  Coefficient  Atom+Function  
  ----- ------------  ---------------      ----- ------------  ---------------
   351      0.252829   9 C  px              394     -0.252825  10 C  px        
   357      0.180750   9 C  px              400     -0.180749  10 C  px        
   354      0.154448   9 C  px              397     -0.154447  10 C  px        
   267     -0.140821   7 C  pz              310     -0.140863   8 C  pz        
   288      0.107467   7 C  dxz             331     -0.107474   8 C  dxz       

 Vector   33  Occ=2.000000D+00  E=-4.448822D-01
              MO Center=  5.4D-06, -5.3D-11,  1.3D+00, r^2= 7.9D+00
   Bfn.  Coefficient  Atom+Function         Bfn.  Coefficient  Atom+Function  
  ----- ------------  ---------------      ----- ------------  ---------------
   138      0.197003   4 C  pz              181     -0.174844   5 C  pz        
   224     -0.174842   6 C  pz               52      0.173192   2 C  pz        
    95      0.173191   3 C  pz              511      0.161639  16 H  s         
   144      0.139034   4 C  pz              187     -0.132378   5 C  pz        
   230     -0.132370   6 C  pz              512      0.127304  16 H  s         

 Vector   34  Occ=2.000000D+00  E=-4.295150D-01
              MO Center=  1.0D-05,  1.4D-10,  1.6D+00, r^2= 4.7D+00
   Bfn.  Coefficient  Atom+Function         Bfn.  Coefficient  Atom+Function  
  ----- ------------  ---------------      ----- ------------  ---------------
   136     -0.199311   4 C  px                7      0.198054   1 C  px        
   179      0.177188   5 C  px              222      0.177186   6 C  px        
    50     -0.167996   2 C  px               93     -0.167995   3 C  px        
   185      0.146892   5 C  px              228      0.146892   6 C  px        
    56     -0.140159   2 C  px               99     -0.140158   3 C  px        

 Vector   35  Occ=2.000000D+00  E=-3.799018D-01
              MO Center= -2.4D-06, -2.1D-10, -2.0D-01, r^2= 8.1D+00
   Bfn.  Coefficient  Atom+Function         Bfn.  Coefficient  Atom+Function  
  ----- ------------  ---------------      ----- ------------  ---------------
   137     -0.186067   4 C  py                8      0.180025   1 C  py        
   352     -0.174367   9 C  py              395     -0.174367  10 C  py        
   140     -0.162003   4 C  py              355     -0.152281   9 C  py        
   398     -0.152281  10 C  py               11      0.144615   1 C  py        
   438      0.125456  11 N  py              180     -0.114273   5 C  py        

 Vector   36  Occ=2.000000D+00  E=-3.509718D-01
              MO Center= -2.4D-05, -6.6D-10,  1.7D+00, r^2= 3.2D+00
   Bfn.  Coefficient  Atom+Function         Bfn.  Coefficient  Atom+Function  
  ----- ------------  ---------------      ----- ------------  ---------------
    51      0.217258   2 C  py               94     -0.217264   3 C  py        
   180      0.211165   5 C  py              223     -0.211166   6 C  py        
    54      0.188535   2 C  py               97     -0.188541   3 C  py        
   183      0.183919   5 C  py              226     -0.183921   6 C  py        
    57      0.133441   2 C  py              100     -0.133444   3 C  py        

 Vector   37  Occ=2.000000D+00  E=-3.056348D-01
              MO Center=  8.9D-06,  2.4D-09, -2.1D+00, r^2= 2.8D+00
   Bfn.  Coefficient  Atom+Function         Bfn.  Coefficient  Atom+Function  
  ----- ------------  ---------------      ----- ------------  ---------------
   266      0.269093   7 C  py              309     -0.269115   8 C  py        
   269      0.239313   7 C  py              312     -0.239332   8 C  py        
   352      0.159326   9 C  py              395     -0.159274  10 C  py        
   355      0.142398   9 C  py              398     -0.142348  10 C  py        
   272      0.124317   7 C  py              315     -0.124329   8 C  py        

 Vector   38  Occ=2.000000D+00  E=-3.024528D-01
              MO Center= -1.9D-05, -3.8D-10, -2.8D-01, r^2= 6.8D+00
   Bfn.  Coefficient  Atom+Function         Bfn.  Coefficient  Atom+Function  
  ----- ------------  ---------------      ----- ------------  ---------------
   438      0.241062  11 N  py              441      0.215997  11 N  py        
   137      0.176318   4 C  py              352     -0.164857   9 C  py        
   395     -0.164900  10 C  py              140      0.156729   4 C  py        
   444      0.150441  11 N  py              355     -0.148147   9 C  py        
   398     -0.148186  10 C  py                8     -0.146390   1 C  py        

 Vector   39  Occ=0.000000D+00  E= 3.308676D-02
              MO Center=  8.7D-05,  4.5D-09,  5.2D-01, r^2= 7.2D+00
   Bfn.  Coefficient  Atom+Function         Bfn.  Coefficient  Atom+Function  
  ----- ------------  ---------------      ----- ------------  ---------------
     8      0.248693   1 C  py               11      0.224050   1 C  py        
   140      0.213748   4 C  py              137      0.203069   4 C  py        
    14      0.182860   1 C  py              266     -0.143899   7 C  py        
   309     -0.143853   8 C  py              201     -0.137149   5 C  dxy       
   244      0.137153   6 C  dxy             269     -0.135728   7 C  py        

 Vector   40  Occ=0.000000D+00  E= 4.390860D-02
              MO Center= -2.9D-05, -1.4D-08,  1.7D+00, r^2= 4.5D+00
   Bfn.  Coefficient  Atom+Function         Bfn.  Coefficient  Atom+Function  
  ----- ------------  ---------------      ----- ------------  ---------------
    29      0.314284   1 C  dxy             183     -0.224394   5 C  py        
   226      0.224396   6 C  py               54      0.221263   2 C  py        
    97     -0.221272   3 C  py              180     -0.221954   5 C  py        
   223      0.221956   6 C  py               51      0.212650   2 C  py        
    94     -0.212659   3 C  py              158     -0.203275   4 C  dxy       

 Vector   41  Occ=0.000000D+00  E= 5.295640D-02
              MO Center=  4.4D-05,  2.7D-08,  1.4D+00, r^2= 2.0D+01
   Bfn.  Coefficient  Atom+Function         Bfn.  Coefficient  Atom+Function  
  ----- ------------  ---------------      ----- ------------  ---------------
     6      5.304068   1 C  s               264     -2.856884   7 C  s         
   307     -2.856795   8 C  s                49     -2.726649   2 C  s         
    92     -2.726538   3 C  s               178     -2.522899   5 C  s         
   221     -2.522980   6 C  s               512      1.725010  16 H  s         
    58      1.413678   2 C  pz              101      1.413672   3 C  pz        

 Vector   42  Occ=0.000000D+00  E= 6.848118D-02
              MO Center=  5.1D-04,  3.5D-08, -5.1D-01, r^2= 2.9D+01
   Bfn.  Coefficient  Atom+Function         Bfn.  Coefficient  Atom+Function  
  ----- ------------  ---------------      ----- ------------  ---------------
   436      3.545786  11 N  s               135      3.175440   4 C  s         
   350     -3.018357   9 C  s               393     -3.016699  10 C  s         
    49     -2.345089   2 C  s                92     -2.342666   3 C  s         
   178      2.055211   5 C  s               221      2.060408   6 C  s         
   162     -1.277058   4 C  dzz              33      1.188986   1 C  dzz       

 Vector   43  Occ=0.000000D+00  E= 6.888030D-02
              MO Center= -5.1D-04,  1.3D-08,  8.1D-01, r^2= 2.2D+01
   Bfn.  Coefficient  Atom+Function         Bfn.  Coefficient  Atom+Function  
  ----- ------------  ---------------      ----- ------------  ---------------
   178      3.972006   5 C  s               221     -3.969188   6 C  s         
   264      2.970779   7 C  s               307     -2.971357   8 C  s         
    49      1.967561   2 C  s                92     -1.970636   3 C  s         
   350      1.308827   9 C  s               393     -1.312917  10 C  s         
   200     -1.246089   5 C  dxx             243      1.245250   6 C  dxx       

 Vector   44  Occ=0.000000D+00  E= 8.317602D-02
              MO Center= -4.7D-05, -6.7D-08, -4.5D-01, r^2= 3.0D+01
   Bfn.  Coefficient  Atom+Function         Bfn.  Coefficient  Atom+Function  
  ----- ------------  ---------------      ----- ------------  ---------------
   135      7.870045   4 C  s                 6      6.013058   1 C  s         
   350      4.572776   9 C  s               393      4.572357  10 C  s         
   264     -4.207973   7 C  s               307     -4.207887   8 C  s         
    49     -3.352896   2 C  s                92     -3.353382   3 C  s         
   162     -2.488487   4 C  dzz             178     -2.319281   5 C  s         

 Vector   45  Occ=0.000000D+00  E= 8.682946D-02
              MO Center=  4.5D-05,  1.7D-08, -4.6D-01, r^2= 2.9D+01
   Bfn.  Coefficient  Atom+Function         Bfn.  Coefficient  Atom+Function  
  ----- ------------  ---------------      ----- ------------  ---------------
   350      7.354962   9 C  s               393     -7.355160  10 C  s         
   178     -6.452890   5 C  s               221      6.452348   6 C  s         
    49      3.216012   2 C  s                92     -3.215694   3 C  s         
   377     -2.519941   9 C  dzz             420      2.520055  10 C  dzz       
   291     -2.065087   7 C  dzz             334      2.065297   8 C  dzz       

 Vector   46  Occ=0.000000D+00  E= 1.012245D-01
              MO Center= -7.2D-07,  1.6D-07,  1.6D-01, r^2= 1.6D+01
   Bfn.  Coefficient  Atom+Function         Bfn.  Coefficient  Atom+Function  
  ----- ------------  ---------------      ----- ------------  ---------------
     6     13.419507   1 C  s               436     -6.013870  11 N  s         
   512      4.057537  16 H  s               539      4.033942  19 H  s         
   548      4.033978  20 H  s               521      3.832382  17 H  s         
   530      3.832285  18 H  s                33     -3.397528   1 C  dzz       
   349     -3.207534   9 C  s               392     -3.207517  10 C  s         

 Vector   47  Occ=0.000000D+00  E= 1.075069D-01
              MO Center=  3.9D-06, -3.0D-07, -2.8D-01, r^2= 8.3D+00
   Bfn.  Coefficient  Atom+Function         Bfn.  Coefficient  Atom+Function  
  ----- ------------  ---------------      ----- ------------  ---------------
    32      0.434720   1 C  dyz             444      0.385740  11 N  py        
   161     -0.379448   4 C  dyz             201      0.364099   5 C  dxy       
   244     -0.364092   6 C  dxy              14     -0.327545   1 C  py        
   438      0.246747  11 N  py              143      0.224078   4 C  py        
   462      0.224541  11 N  dyz             441      0.196898  11 N  py        

 Vector   48  Occ=0.000000D+00  E= 1.100985D-01
              MO Center=  4.2D-04,  1.2D-08, -6.9D-01, r^2= 2.8D+01
   Bfn.  Coefficient  Atom+Function         Bfn.  Coefficient  Atom+Function  
  ----- ------------  ---------------      ----- ------------  ---------------
   350      9.295979   9 C  s               393     -9.293759  10 C  s         
    49     -7.606772   2 C  s                92      7.605023   3 C  s         
   178      6.735777   5 C  s               221     -6.729342   6 C  s         
   264     -4.298962   7 C  s               307      4.294833   8 C  s         
    73     -1.977112   2 C  dxz             116     -1.978016   3 C  dxz       

 Vector   49  Occ=0.000000D+00  E= 1.110653D-01
              MO Center= -4.3D-04,  6.1D-08,  9.7D-01, r^2= 2.7D+01
   Bfn.  Coefficient  Atom+Function         Bfn.  Coefficient  Atom+Function  
  ----- ------------  ---------------      ----- ------------  ---------------
   135     11.500639   4 C  s               178     -8.722581   5 C  s         
   221     -8.727137   6 C  s               264      6.251490   7 C  s         
   307      6.254500   8 C  s               436     -5.779930  11 N  s         
     6     -4.390743   1 C  s               350     -3.316559   9 C  s         
   393     -3.322602  10 C  s               512     -2.883545  16 H  s         

 Vector   50  Occ=0.000000D+00  E= 1.352967D-01
              MO Center= -2.3D-05,  4.0D-07, -2.5D+00, r^2= 5.5D+00
   Bfn.  Coefficient  Atom+Function         Bfn.  Coefficient  Atom+Function  
  ----- ------------  ---------------      ----- ------------  ---------------
    29      1.402919   1 C  dxy              75      0.861553   2 C  dyz       
   118     -0.861559   3 C  dyz             358      0.747118   9 C  py        
   401     -0.747111  10 C  py              376      0.706614   9 C  dyz       
   419     -0.706621  10 C  dyz              57     -0.654552   2 C  py        
   100      0.654549   3 C  py              373     -0.596892   9 C  dxy       

 Vector   51  Occ=0.000000D+00  E= 1.399016D-01
              MO Center=  1.8D-06, -1.4D-07,  1.0D-01, r^2= 2.2D+01
   Bfn.  Coefficient  Atom+Function         Bfn.  Coefficient  Atom+Function  
  ----- ------------  ---------------      ----- ------------  ---------------
   135      7.945201   4 C  s                49      7.523667   2 C  s         
    92      7.523396   3 C  s               494      7.507642  14 H  s         
   503      7.507992  15 H  s               178     -6.063575   5 C  s         
   221     -6.063316   6 C  s               539     -5.978686  19 H  s         
   548     -5.978736  20 H  s               264     -4.477499   7 C  s         

 Vector   52  Occ=0.000000D+00  E= 1.504014D-01
              MO Center=  2.1D-04, -1.3D-07, -4.9D-01, r^2= 2.8D+01
   Bfn.  Coefficient  Atom+Function         Bfn.  Coefficient  Atom+Function  
  ----- ------------  ---------------      ----- ------------  ---------------
   264     15.599039   7 C  s               307    -15.598031   8 C  s         
    49    -12.955567   2 C  s                92     12.952924   3 C  s         
   350    -12.678993   9 C  s               393     12.678266  10 C  s         
   178      6.399662   5 C  s               221     -6.396712   6 C  s         
   202     -4.249073   5 C  dxz             245     -4.248503   6 C  dxz       

 Vector   53  Occ=0.000000D+00  E= 1.539550D-01
              MO Center= -2.2D-04, -2.1D-08,  2.5D-01, r^2= 2.5D+01
   Bfn.  Coefficient  Atom+Function         Bfn.  Coefficient  Atom+Function  
  ----- ------------  ---------------      ----- ------------  ---------------
   178     12.989504   5 C  s               221     12.990757   6 C  s         
    49    -11.648157   2 C  s                92    -11.650607   3 C  s         
   512      9.419568  16 H  s               135     -8.185439   4 C  s         
   539     -8.103987  19 H  s               548     -8.104091  20 H  s         
   436     -8.046970  11 N  s               134     -6.806427   4 C  s         

 Vector   54  Occ=0.000000D+00  E= 1.742313D-01
              MO Center= -7.2D-07, -8.0D-07,  6.5D-01, r^2= 1.6D+01
   Bfn.  Coefficient  Atom+Function         Bfn.  Coefficient  Atom+Function  
  ----- ------------  ---------------      ----- ------------  ---------------
   476     11.666337  12 H  s               485    -11.666326  13 H  s         
   494     10.936069  14 H  s               503    -10.935999  15 H  s         
   521      7.423907  17 H  s               530     -7.424129  18 H  s         
    48     -7.031572   2 C  s                91      7.031579   3 C  s         
   177     -6.565204   5 C  s               220      6.565189   6 C  s         

 Vector   55  Occ=0.000000D+00  E= 1.780527D-01
              MO Center=  6.7D-05, -2.0D-07,  2.1D+00, r^2= 1.4D+01
   Bfn.  Coefficient  Atom+Function         Bfn.  Coefficient  Atom+Function  
  ----- ------------  ---------------      ----- ------------  ---------------
    14      2.300990   1 C  py              143     -1.788302   4 C  py        
    75      1.540254   2 C  dyz             118      1.540116   3 C  dyz       
   201     -1.528272   5 C  dxy             244      1.528200   6 C  dxy       
    32     -1.409828   1 C  dyz              72      1.104950   2 C  dxy       
   115     -1.104849   3 C  dxy             499      0.973878  14 H  py        

 Vector   56  Occ=0.000000D+00  E= 1.845470D-01
              MO Center= -1.6D-06,  3.0D-07, -3.9D-01, r^2= 2.2D+01
   Bfn.  Coefficient  Atom+Function         Bfn.  Coefficient  Atom+Function  
  ----- ------------  ---------------      ----- ------------  ---------------
     6     17.695457   1 C  s               539    -11.359018  19 H  s         
   548    -11.358959  20 H  s               494     -7.897270  14 H  s         
   503     -7.897585  15 H  s               512     -7.120807  16 H  s         
   349      6.777075   9 C  s               392      6.777018  10 C  s         
    49     -6.217040   2 C  s                92     -6.216831   3 C  s         

 Vector   57  Occ=0.000000D+00  E= 1.850705D-01
              MO Center=  1.4D-05,  4.2D-07,  6.7D-01, r^2= 1.5D+01
   Bfn.  Coefficient  Atom+Function         Bfn.  Coefficient  Atom+Function  
  ----- ------------  ---------------      ----- ------------  ---------------
    29      7.465975   1 C  dxy              75      3.687737   2 C  dyz       
   118     -3.688043   3 C  dyz              57     -3.521360   2 C  py        
   100      3.521292   3 C  py               72      2.245602   2 C  dxy       
   115      2.246052   3 C  dxy             186     -1.844445   5 C  py        
   229      1.844686   6 C  py              201     -1.584275   5 C  dxy       

 Vector   58  Occ=0.000000D+00  E= 1.897676D-01
              MO Center= -6.6D-05,  1.7D-07, -1.3D+00, r^2= 2.0D+01
   Bfn.  Coefficient  Atom+Function         Bfn.  Coefficient  Atom+Function  
  ----- ------------  ---------------      ----- ------------  ---------------
    14      3.299498   1 C  py               72      2.608218   2 C  dxy       
   115     -2.607866   3 C  dxy              32      2.309559   1 C  dyz       
   290      2.114638   7 C  dyz             333      2.114671   8 C  dyz       
   358      2.010649   9 C  py              401      2.010674  10 C  py        
   143     -1.895695   4 C  py              204      1.802016   5 C  dyz       

 Vector   59  Occ=0.000000D+00  E= 2.063784D-01
              MO Center=  2.6D-04,  3.7D-08,  5.2D-01, r^2= 2.0D+01
   Bfn.  Coefficient  Atom+Function         Bfn.  Coefficient  Atom+Function  
  ----- ------------  ---------------      ----- ------------  ---------------
     6     20.657782   1 C  s               512     14.788926  16 H  s         
    49    -13.508917   2 C  s                92    -13.508272   3 C  s         
   521    -10.873980  17 H  s               530    -10.871352  18 H  s         
   271      6.145790   7 C  px              314     -6.144552   8 C  px        
   144     -6.027919   4 C  pz              539      5.822305  19 H  s         

 Vector   60  Occ=0.000000D+00  E= 2.076985D-01
              MO Center= -2.4D-04, -4.9D-07,  6.5D-01, r^2= 2.2D+01
   Bfn.  Coefficient  Atom+Function         Bfn.  Coefficient  Atom+Function  
  ----- ------------  ---------------      ----- ------------  ---------------
   494     15.522327  14 H  s               503    -15.521594  15 H  s         
   521     -8.290136  17 H  s               530      8.293573  18 H  s         
   539     -7.249135  19 H  s               548      7.247478  20 H  s         
   202     -6.327162   5 C  dxz             245     -6.326552   6 C  dxz       
   177     -5.924344   5 C  s               220      5.925371   6 C  s         

 Vector   61  Occ=0.000000D+00  E= 2.182608D-01
              MO Center=  5.3D-06, -1.8D-08,  6.2D-01, r^2= 1.1D+01
   Bfn.  Coefficient  Atom+Function         Bfn.  Coefficient  Atom+Function  
  ----- ------------  ---------------      ----- ------------  ---------------
    57     -1.378157   2 C  py              100     -1.378193   3 C  py        
    32      1.327371   1 C  dyz             161      1.021073   4 C  dyz       
   204     -1.010398   5 C  dyz             247     -1.010411   6 C  dyz       
   186      0.941015   5 C  py              229      0.940971   6 C  py        
   358      0.850831   9 C  py              401      0.850809  10 C  py        

 Vector   62  Occ=0.000000D+00  E= 2.194416D-01
              MO Center=  1.8D-05, -3.5D-07, -7.1D-01, r^2= 1.7D+01
   Bfn.  Coefficient  Atom+Function         Bfn.  Coefficient  Atom+Function  
  ----- ------------  ---------------      ----- ------------  ---------------
   521     11.884255  17 H  s               530    -11.884513  18 H  s         
   494     -6.791109  14 H  s               503      6.791190  15 H  s         
   374     -6.416902   9 C  dxz             417     -6.416898  10 C  dxz       
   263     -6.338456   7 C  s               306      6.338567   8 C  s         
   273     -6.156188   7 C  pz              316      6.156256   8 C  pz        

 Vector   63  Occ=0.000000D+00  E= 2.265095D-01
              MO Center= -5.3D-06,  6.7D-08, -5.7D-01, r^2= 1.9D+01
   Bfn.  Coefficient  Atom+Function         Bfn.  Coefficient  Atom+Function  
  ----- ------------  ---------------      ----- ------------  ---------------
   436      9.903053  11 N  s                 6     -8.770044   1 C  s         
   521     -7.048620  17 H  s               530     -7.047956  18 H  s         
   178      5.533082   5 C  s               221      5.532755   6 C  s         
    33      5.133037   1 C  dzz             372      4.058188   9 C  dxx       
   415      4.058210  10 C  dxx             273      3.960902   7 C  pz        

 Vector   64  Occ=0.000000D+00  E= 2.314924D-01
              MO Center= -8.8D-05,  4.4D-08,  4.9D-01, r^2= 1.6D+01
   Bfn.  Coefficient  Atom+Function         Bfn.  Coefficient  Atom+Function  
  ----- ------------  ---------------      ----- ------------  ---------------
   143      2.533351   4 C  py              358      1.448360   9 C  py        
   401      1.449289  10 C  py              201      1.246667   5 C  dxy       
   244     -1.246855   6 C  dxy              72     -1.190567   2 C  dxy       
   115      1.190981   3 C  dxy             517     -1.078941  16 H  py        
   290      1.062809   7 C  dyz             333      1.063096   8 C  dyz       

 Vector   65  Occ=0.000000D+00  E= 2.321152D-01
              MO Center=  9.0D-05,  9.5D-07, -5.3D-01, r^2= 1.8D+01
   Bfn.  Coefficient  Atom+Function         Bfn.  Coefficient  Atom+Function  
  ----- ------------  ---------------      ----- ------------  ---------------
   358      2.983800   9 C  py              401     -2.983374  10 C  py        
   287      2.562984   7 C  dxy             330      2.562965   8 C  dxy       
   158      2.423563   4 C  dxy             373     -2.263215   9 C  dxy       
   416     -2.263440  10 C  dxy             186     -2.154699   5 C  py        
   229      2.154589   6 C  py              526     -1.795163  17 H  py        

 Vector   66  Occ=0.000000D+00  E= 2.330748D-01
              MO Center= -4.6D-06, -3.5D-08, -9.7D-01, r^2= 1.8D+01
   Bfn.  Coefficient  Atom+Function         Bfn.  Coefficient  Atom+Function  
  ----- ------------  ---------------      ----- ------------  ---------------
   436     15.626498  11 N  s                 6    -11.112565   1 C  s         
   512      7.129673  16 H  s               539     -6.345039  19 H  s         
   548     -6.345227  20 H  s               135      5.126535   4 C  s         
   476     -4.571311  12 H  s               485     -4.571405  13 H  s         
   350     -3.760713   9 C  s               393     -3.760685  10 C  s         

 Vector   67  Occ=0.000000D+00  E= 2.476339D-01
              MO Center= -1.1D-05, -3.4D-09, -9.5D-02, r^2= 1.5D+01
   Bfn.  Coefficient  Atom+Function         Bfn.  Coefficient  Atom+Function  
  ----- ------------  ---------------      ----- ------------  ---------------
   512      9.638325  16 H  s               436     -7.620738  11 N  s         
     6      6.390986   1 C  s               521      6.018167  17 H  s         
   530      6.018488  18 H  s                33     -4.453132   1 C  dzz       
   264      3.432953   7 C  s               307      3.432850   8 C  s         
   135      3.115010   4 C  s               157      3.043886   4 C  dxx       

 Vector   68  Occ=0.000000D+00  E= 2.534150D-01
              MO Center=  2.7D-03, -3.9D-08,  1.6D+00, r^2= 1.6D+01
   Bfn.  Coefficient  Atom+Function         Bfn.  Coefficient  Atom+Function  
  ----- ------------  ---------------      ----- ------------  ---------------
     6     14.368954   1 C  s               135     12.977542   4 C  s         
   178     -4.908189   5 C  s               221     -4.523013   6 C  s         
    92     -3.946939   3 C  s                33     -3.851943   1 C  dzz       
   494     -3.626798  14 H  s                49     -3.578920   2 C  s         
   503     -3.507781  15 H  s               539     -3.118388  19 H  s         

 Vector   69  Occ=0.000000D+00  E= 2.534397D-01
              MO Center= -2.6D-03,  1.5D-07,  1.4D+00, r^2= 1.9D+01
   Bfn.  Coefficient  Atom+Function         Bfn.  Coefficient  Atom+Function  
  ----- ------------  ---------------      ----- ------------  ---------------
   221      9.648646   6 C  s               178     -9.459980   5 C  s         
    49      9.209552   2 C  s                92     -9.057576   3 C  s         
   393      8.354005  10 C  s               350     -8.293422   9 C  s         
   159     -8.050612   4 C  dxz              30      5.767485   1 C  dxz       
   548      5.255109  20 H  s               539     -5.133824  19 H  s         

 Vector   70  Occ=0.000000D+00  E= 2.593780D-01
              MO Center=  3.3D-06,  1.5D-07, -7.4D-01, r^2= 2.3D+01
   Bfn.  Coefficient  Atom+Function         Bfn.  Coefficient  Atom+Function  
  ----- ------------  ---------------      ----- ------------  ---------------
   350     13.314428   9 C  s               393    -13.314812  10 C  s         
   476    -12.183194  12 H  s               485     12.182969  13 H  s         
   539      9.853637  19 H  s               548     -9.854414  20 H  s         
    30     -7.653939   1 C  dxz             494      6.902169  14 H  s         
   503     -6.902119  15 H  s               377     -6.431686   9 C  dzz       

 Vector   71  Occ=0.000000D+00  E= 2.669864D-01
              MO Center= -4.4D-05, -3.9D-08, -3.2D-03, r^2= 2.2D+01
   Bfn.  Coefficient  Atom+Function         Bfn.  Coefficient  Atom+Function  
  ----- ------------  ---------------      ----- ------------  ---------------
     6      8.650349   1 C  s               539      8.125957  19 H  s         
   548      8.124758  20 H  s               264     -7.760133   7 C  s         
   307     -7.759302   8 C  s               178      7.315442   5 C  s         
   221      7.316313   6 C  s               350      5.329243   9 C  s         
   393      5.328083  10 C  s               476      4.637875  12 H  s         

 Vector   72  Occ=0.000000D+00  E= 2.708755D-01
              MO Center= -3.3D-05,  6.0D-08,  7.0D-01, r^2= 2.1D+01
   Bfn.  Coefficient  Atom+Function         Bfn.  Coefficient  Atom+Function  
  ----- ------------  ---------------      ----- ------------  ---------------
   350     -8.387481   9 C  s               393      8.387656  10 C  s         
   264      7.941419   7 C  s               307     -7.941616   8 C  s         
   539     -7.113721  19 H  s               548      7.114954  20 H  s         
   476      6.117885  12 H  s               485     -6.116476  13 H  s         
    30      6.034309   1 C  dxz             178      5.284950   5 C  s         

 Vector   73  Occ=0.000000D+00  E= 2.736125D-01
              MO Center=  4.7D-05,  2.6D-09, -1.8D-01, r^2= 1.6D+01
   Bfn.  Coefficient  Atom+Function         Bfn.  Coefficient  Atom+Function  
  ----- ------------  ---------------      ----- ------------  ---------------
   436     13.157090  11 N  s               539    -12.345222  19 H  s         
   548    -12.344048  20 H  s                 6     -9.090777   1 C  s         
   349      8.278984   9 C  s               392      8.279194  10 C  s         
   521     -6.972978  17 H  s               530     -6.973629  18 H  s         
   135     -6.331255   4 C  s               263      6.164976   7 C  s         

 Vector   74  Occ=0.000000D+00  E= 2.760706D-01
              MO Center=  6.6D-06, -1.9D-07, -9.1D-02, r^2= 1.0D+01
   Bfn.  Coefficient  Atom+Function         Bfn.  Coefficient  Atom+Function  
  ----- ------------  ---------------      ----- ------------  ---------------
    32      4.701858   1 C  dyz              14      2.505183   1 C  py        
    72      2.243710   2 C  dxy             115     -2.243749   3 C  dxy       
   444      1.842804  11 N  py               57     -1.812272   2 C  py        
   100     -1.812307   3 C  py              143      1.190653   4 C  py        
   272     -0.596284   7 C  py              315     -0.596279   8 C  py        

 Vector   75  Occ=0.000000D+00  E= 2.773224D-01
              MO Center=  4.2D-05,  4.4D-07, -7.2D-01, r^2= 2.2D+01
   Bfn.  Coefficient  Atom+Function         Bfn.  Coefficient  Atom+Function  
  ----- ------------  ---------------      ----- ------------  ---------------
     6     11.933670   1 C  s               135     -9.893300   4 C  s         
   476      8.888532  12 H  s               485      8.889767  13 H  s         
   494      7.863250  14 H  s               503      7.863027  15 H  s         
   178      7.202169   5 C  s               221      7.201942   6 C  s         
    28     -6.667048   1 C  dxx             134     -5.369284   4 C  s         

 Vector   76  Occ=0.000000D+00  E= 2.830223D-01
              MO Center= -6.0D-05, -1.3D-07, -5.7D-01, r^2= 2.0D+01
   Bfn.  Coefficient  Atom+Function         Bfn.  Coefficient  Atom+Function  
  ----- ------------  ---------------      ----- ------------  ---------------
   350      9.734732   9 C  s               393     -9.735182  10 C  s         
   521     -9.403297  17 H  s               530      9.403444  18 H  s         
   476      8.413353  12 H  s               485     -8.413300  13 H  s         
    49      7.626452   2 C  s                92     -7.625751   3 C  s         
   273      7.433353   7 C  pz              316     -7.433264   8 C  pz        

 Vector   77  Occ=0.000000D+00  E= 2.848714D-01
              MO Center= -7.1D-06, -3.1D-07,  1.4D-01, r^2= 2.0D+01
   Bfn.  Coefficient  Atom+Function         Bfn.  Coefficient  Atom+Function  
  ----- ------------  ---------------      ----- ------------  ---------------
    29      5.097872   1 C  dxy             358      3.545325   9 C  py        
   401     -3.545328  10 C  py               57     -3.394977   2 C  py        
   100      3.394977   3 C  py              373     -2.747966   9 C  dxy       
   416     -2.747967  10 C  dxy             158     -2.120064   4 C  dxy       
   186      1.798267   5 C  py              229     -1.798279   6 C  py        

 Vector   78  Occ=0.000000D+00  E= 2.944406D-01
              MO Center=  1.1D-05, -3.3D-07,  1.6D-01, r^2= 1.8D+01
   Bfn.  Coefficient  Atom+Function         Bfn.  Coefficient  Atom+Function  
  ----- ------------  ---------------      ----- ------------  ---------------
   143      4.279773   4 C  py              201      2.225827   5 C  dxy       
   244     -2.225836   6 C  dxy             186     -2.071101   5 C  py        
   229     -2.071135   6 C  py               14     -1.904428   1 C  py        
   272      1.905066   7 C  py              315      1.905006   8 C  py        
    72     -1.753779   2 C  dxy             115      1.753823   3 C  dxy       

 Vector   79  Occ=0.000000D+00  E= 3.010496D-01
              MO Center=  1.0D-05,  4.9D-07,  9.4D-02, r^2= 2.4D+01
   Bfn.  Coefficient  Atom+Function         Bfn.  Coefficient  Atom+Function  
  ----- ------------  ---------------      ----- ------------  ---------------
   436     18.925651  11 N  s               135    -14.042499   4 C  s         
   178     13.466282   5 C  s               221     13.465130   6 C  s         
    49     -9.432859   2 C  s                92     -9.430244   3 C  s         
   494      7.320981  14 H  s               503      7.318801  15 H  s         
   521     -7.344113  17 H  s               530     -7.343466  18 H  s         

 Vector   80  Occ=0.000000D+00  E= 3.016390D-01
              MO Center= -4.2D-06,  1.1D-08, -9.3D-01, r^2= 1.8D+01
   Bfn.  Coefficient  Atom+Function         Bfn.  Coefficient  Atom+Function  
  ----- ------------  ---------------      ----- ------------  ---------------
   350      8.822885   9 C  s               393     -8.821999  10 C  s         
    49      7.754747   2 C  s                92     -7.757006   3 C  s         
   264     -6.950798   7 C  s               307      6.950136   8 C  s         
    30      6.731215   1 C  dxz             494     -6.371862  14 H  s         
   503      6.374389  15 H  s               539     -5.592241  19 H  s         

 Vector   81  Occ=0.000000D+00  E= 3.142027D-01
              MO Center=  5.7D-05,  2.4D-07,  1.3D+00, r^2= 1.7D+01
   Bfn.  Coefficient  Atom+Function         Bfn.  Coefficient  Atom+Function  
  ----- ------------  ---------------      ----- ------------  ---------------
   135     16.440664   4 C  s                49     14.267424   2 C  s         
    92     14.266160   3 C  s               178    -13.228297   5 C  s         
   221    -13.227861   6 C  s                 6     -9.503404   1 C  s         
   494      8.893980  14 H  s               503      8.894654  15 H  s         
   476     -8.451570  12 H  s               485     -8.451789  13 H  s         

 Vector   82  Occ=0.000000D+00  E= 3.223105D-01
              MO Center=  4.7D-04, -4.3D-08, -1.5D+00, r^2= 1.9D+01
   Bfn.  Coefficient  Atom+Function         Bfn.  Coefficient  Atom+Function  
  ----- ------------  ---------------      ----- ------------  ---------------
   264     18.435315   7 C  s               307    -18.431639   8 C  s         
    49    -13.488011   2 C  s                92     13.479766   3 C  s         
   521     13.142517  17 H  s               530    -13.152355  18 H  s         
   350    -11.566311   9 C  s               393     11.564320  10 C  s         
   263     -8.217814   7 C  s               306      8.222638   8 C  s         

 Vector   83  Occ=0.000000D+00  E= 3.227921D-01
              MO Center= -2.8D-04, -1.3D-06,  1.0D+00, r^2= 1.8D+01
   Bfn.  Coefficient  Atom+Function         Bfn.  Coefficient  Atom+Function  
  ----- ------------  ---------------      ----- ------------  ---------------
    49      9.654100   2 C  s                92      9.661265   3 C  s         
   178     -8.586399   5 C  s               221     -8.590102   6 C  s         
   494     -7.417330  14 H  s               503     -7.421217  15 H  s         
   264     -5.742380   7 C  s               307     -5.752826   8 C  s         
   162      5.660545   4 C  dzz             157      5.561336   4 C  dxx       

 Vector   84  Occ=0.000000D+00  E= 3.233943D-01
              MO Center= -2.1D-06,  1.0D-09,  6.8D-01, r^2= 1.0D+01
   Bfn.  Coefficient  Atom+Function         Bfn.  Coefficient  Atom+Function  
  ----- ------------  ---------------      ----- ------------  ---------------
    14      3.399658   1 C  py              287      2.253208   7 C  dxy       
   330     -2.253188   8 C  dxy             462     -2.041342  11 N  dyz       
   272     -1.647662   7 C  py              315     -1.647629   8 C  py        
   290      1.464866   7 C  dyz             333      1.464888   8 C  dyz       
   376      1.467879   9 C  dyz             419      1.467873  10 C  dyz       

 Vector   85  Occ=0.000000D+00  E= 3.256021D-01
              MO Center= -2.0D-04,  9.7D-07, -2.5D-01, r^2= 1.7D+01
   Bfn.  Coefficient  Atom+Function         Bfn.  Coefficient  Atom+Function  
  ----- ------------  ---------------      ----- ------------  ---------------
    33     17.475458   1 C  dzz             521    -17.247066  17 H  s         
   530    -17.242051  18 H  s                49    -12.084144   2 C  s         
    92    -12.087762   3 C  s                 6     11.923977   1 C  s         
[...]
  ----------------------------------------------------------------------------
     Transition Moments    X -0.00000   Y  0.00001   Z  0.00000
     Transition Moments   XX  0.00000  XY -2.33702  XZ -0.00000
     Transition Moments   YY  0.00000  YZ  0.00017  ZZ  0.00000
     Dipole Oscillator Strength                    0.0000000000
     Electric Quadrupole                           0.0000003300
     Magnetic Dipole                               0.0000008076
     Total Oscillator Strength                     0.0000011377

     Occ.   35  a   ---  Virt.   43  a       -0.05578
     Occ.   35  a   ---  Virt.   45  a       -0.06058
     Occ.   37  a   ---  Virt.   41  a       -0.70718
     Occ.   37  a   ---  Virt.   42  a       -0.64187
     Occ.   37  a   ---  Virt.   44  a        0.06682
     Occ.   37  a   ---  Virt.   46  a        0.10393
     Occ.   37  a   ---  Virt.   49  a        0.13516
     Occ.   37  a   ---  Virt.   51  a       -0.06778
     Occ.   37  a   ---  Virt.   59  a        0.07427
     Occ.   37  a   ---  Virt.   66  a        0.09289
     Occ.   37  a   ---  Virt.   67  a       -0.06470
     Occ.   37  a   ---  Virt.   75  a        0.05269
     Occ.   38  a   ---  Virt.   43  a       -0.06737
     Occ.   38  a   ---  Virt.   45  a       -0.06769
  ----------------------------------------------------------------------------
  Root   5 singlet a              0.226073343 a.u.                6.1518 eV 
  ----------------------------------------------------------------------------
     Transition Moments    X -0.00011   Y  0.00000   Z  1.23875
     Transition Moments   XX  0.51013  XY -0.00000  XZ  0.00044
     Transition Moments   YY  0.27069  YZ  0.00000  ZZ -1.81230
     Dipole Oscillator Strength                    0.2312717333
     Electric Quadrupole                           0.0000001004
     Magnetic Dipole                               0.0000000000
     Total Oscillator Strength                     0.2312718337

     Occ.   36  a   ---  Virt.   40  a       -0.08485
     Occ.   37  a   ---  Virt.   40  a       -0.96026
     Occ.   37  a   ---  Virt.   50  a       -0.06387
     Occ.   38  a   ---  Virt.   39  a       -0.23070
  ----------------------------------------------------------------------------
  Root   6 singlet a              0.228192192 a.u.                6.2094 eV 
  ----------------------------------------------------------------------------
     Transition Moments    X  0.00000   Y  0.25309   Z -0.00000
     Transition Moments   XX -0.00000  XY -0.00004  XZ -0.00000
     Transition Moments   YY -0.00000  YZ -2.44648  ZZ  0.00000
     Dipole Oscillator Strength                    0.0097443532
     Electric Quadrupole                           0.0000003787
     Magnetic Dipole                               0.0000010266
     Total Oscillator Strength                     0.0097457585

     Occ.   35  a   ---  Virt.   41  a        0.07276
     Occ.   35  a   ---  Virt.   42  a       -0.15932
     Occ.   36  a   ---  Virt.   43  a       -0.05241
     Occ.   37  a   ---  Virt.   43  a       -0.07120
     Occ.   37  a   ---  Virt.   45  a       -0.07216
     Occ.   38  a   ---  Virt.   41  a       -0.91798
     Occ.   38  a   ---  Virt.   42  a       -0.19734
     Occ.   38  a   ---  Virt.   46  a        0.19495
     Occ.   38  a   ---  Virt.   53  a       -0.05844
     Occ.   38  a   ---  Virt.   56  a        0.06730
     Occ.   38  a   ---  Virt.   59  a        0.08145
     Occ.   38  a   ---  Virt.   66  a        0.05445
     Occ.   38  a   ---  Virt.   67  a       -0.05470
  ----------------------------------------------------------------------------
  Root   7 singlet a              0.244213341 a.u.                6.6454 eV 
  ----------------------------------------------------------------------------
     Transition Moments    X  0.00000   Y  0.59976   Z -0.00000
     Transition Moments   XX -0.00000  XY -0.00017  XZ -0.00000
     Transition Moments   YY  0.00000  YZ -2.05709  ZZ -0.00000
     Dipole Oscillator Strength                    0.0585650799
     Electric Quadrupole                           0.0000003282
     Magnetic Dipole                               0.0000004199
     Total Oscillator Strength                     0.0585658280

     Occ.   30  a   ---  Virt.   42  a       -0.05655
     Occ.   35  a   ---  Virt.   41  a       -0.22148
     Occ.   35  a   ---  Virt.   42  a       -0.07370
     Occ.   35  a   ---  Virt.   44  a        0.07238
     Occ.   37  a   ---  Virt.   43  a       -0.63814
     Occ.   37  a   ---  Virt.   45  a       -0.48481
     Occ.   37  a   ---  Virt.   52  a       -0.08074
     Occ.   37  a   ---  Virt.   70  a        0.06522
     Occ.   37  a   ---  Virt.   76  a        0.05485
     Occ.   38  a   ---  Virt.   41  a        0.16639
     Occ.   38  a   ---  Virt.   42  a       -0.46482
     Occ.   38  a   ---  Virt.   44  a        0.07417
     Occ.   38  a   ---  Virt.   46  a       -0.05794
     Occ.   38  a   ---  Virt.   49  a        0.06705
  ----------------------------------------------------------------------------
  Root   8 singlet a              0.246234727 a.u.                6.7004 eV 
  ----------------------------------------------------------------------------
     Transition Moments    X -1.04661   Y  0.00000   Z  0.00011
     Transition Moments   XX  0.00001  XY -0.00000  XZ -5.22864
     Transition Moments   YY -0.00003  YZ  0.00000  ZZ  0.00057
     Dipole Oscillator Strength                    0.1798153878
     Electric Quadrupole                           0.0000021735
     Magnetic Dipole                               0.0000023619
     Total Oscillator Strength                     0.1798199231

     Occ.   26  a   ---  Virt.   40  a       -0.07307
     Occ.   30  a   ---  Virt.   40  a        0.09015
     Occ.   35  a   ---  Virt.   40  a       -0.31078
     Occ.   36  a   ---  Virt.   39  a       -0.71336
     Occ.   36  a   ---  Virt.   47  a        0.06241
     Occ.   38  a   ---  Virt.   40  a       -0.55366
     Occ.   38  a   ---  Virt.   50  a       -0.18107

              Target root =      1
          Target symmetry = none
      Ground state energy =   -440.956056159768
        Excitation energy =      0.186264347220
     Excited state energy =   -440.769791812548

  stored tddft:energy   -440.76979181254848     

    8 smallest eigenvalue differences (eV) 
--------------------------------------------------------
  No. Spin  Occ  Vir  Irrep   E(Occ)    E(Vir)   E(Diff)
--------------------------------------------------------
    1    1   38   39 a        -0.302     0.033     9.130
    2    1   37   39 a        -0.306     0.033     9.217
    3    1   38   40 a        -0.302     0.044     9.425
    4    1   37   40 a        -0.306     0.044     9.512
    5    1   38   41 a        -0.302     0.053     9.671
    6    1   37   41 a        -0.306     0.053     9.758
    7    1   38   42 a        -0.302     0.068    10.094
    8    1   38   43 a        -0.302     0.069    10.104
--------------------------------------------------------

  Entering Davidson iterations
  Restricted triplet excited states

  Iter   NTrls   NConv    DeltaV     DeltaE      Time   
  ----  ------  ------  ---------  ---------  --------- 
    1      8       0     0.60E-01   0.10+100      493.9
    2     16       0     0.54E-01   0.31E-01      499.8
    3     24       0     0.39E-01   0.33E-01      498.0
    4     32       0     0.13E+00   0.19E-01      503.5
    5     40       0     0.45E-01   0.22E-01      502.8
    6     48       0     0.65E-01   0.13E-01      504.2
    7     56       1     0.34E-01   0.75E-02      504.7
    8     63       3     0.13E-01   0.13E-02      485.5
    9     68       3     0.27E-02   0.82E-04      443.4
   10     73       6     0.58E-03   0.36E-05      443.2
   11     75       7     0.11E-03   0.12E-06      370.8
   12     76       8     0.82E-04   0.45E-08      349.7
  ----  ------  ------  ---------  ---------  --------- 
  Convergence criterion met

  Ground state a        -440.956056159768 a.u.

  ----------------------------------------------------------------------------
  Root   1 triplet a              0.138595068 a.u.                3.7714 eV 
  ----------------------------------------------------------------------------
     Transition Moments                    Spin forbidden
     Oscillator Strength                   Spin forbidden

     Occ.   30  a   ---  Virt.   61  a        0.07948
     Occ.   35  a   ---  Virt.   39  a       -0.21329
     Occ.   35  a   ---  Virt.   47  a        0.19762
     Occ.   36  a   ---  Virt.   40  a        0.33407
     Occ.   38  a   ---  Virt.   39  a        0.87620
     Occ.   38  a   ---  Virt.   47  a       -0.05693
     Occ.   38  a   ---  Virt.   64  a        0.07155
  ----------------------------------------------------------------------------
  Root   2 triplet a              0.142213186 a.u.                3.8698 eV 
  ----------------------------------------------------------------------------
     Transition Moments                    Spin forbidden
     Oscillator Strength                   Spin forbidden

     Occ.   26  a   ---  Virt.   50  a       -0.05507
     Occ.   30  a   ---  Virt.   50  a        0.05540
     Occ.   35  a   ---  Virt.   50  a        0.10544
     Occ.   36  a   ---  Virt.   47  a        0.05633
     Occ.   37  a   ---  Virt.   39  a        0.82680
     Occ.   37  a   ---  Virt.   47  a        0.50386
     Occ.   37  a   ---  Virt.   55  a        0.07083
     Occ.   37  a   ---  Virt.   61  a        0.09001
     Occ.   37  a   ---  Virt.   64  a        0.05626
     Occ.   37  a   ---  Virt.   78  a       -0.07381
     Occ.   38  a   ---  Virt.   50  a        0.09092
  ----------------------------------------------------------------------------
  Root   3 triplet a              0.158276854 a.u.                4.3069 eV 
  ----------------------------------------------------------------------------
     Transition Moments                    Spin forbidden
     Oscillator Strength                   Spin forbidden

     Occ.   35  a   ---  Virt.   40  a        0.36154
     Occ.   35  a   ---  Virt.   50  a       -0.06164
     Occ.   36  a   ---  Virt.   39  a       -0.16229
     Occ.   38  a   ---  Virt.   40  a       -0.90767
  ----------------------------------------------------------------------------
  Root   4 triplet a              0.167820148 a.u.                4.5666 eV 
  ----------------------------------------------------------------------------
     Transition Moments                    Spin forbidden
     Oscillator Strength                   Spin forbidden

     Occ.   30  a   ---  Virt.   61  a        0.05339
     Occ.   35  a   ---  Virt.   39  a       -0.05519
     Occ.   35  a   ---  Virt.   47  a       -0.06938
     Occ.   36  a   ---  Virt.   40  a        0.88097
     Occ.   36  a   ---  Virt.   50  a       -0.09254
     Occ.   36  a   ---  Virt.   65  a        0.05764
     Occ.   36  a   ---  Virt.   77  a       -0.05582
     Occ.   37  a   ---  Virt.   40  a       -0.19824
     Occ.   37  a   ---  Virt.   50  a       -0.05952
     Occ.   38  a   ---  Virt.   39  a       -0.36671
     Occ.   38  a   ---  Virt.   47  a       -0.09120
  ----------------------------------------------------------------------------
  Root   5 triplet a              0.186901110 a.u.                5.0858 eV 
  ----------------------------------------------------------------------------
     Transition Moments                    Spin forbidden
     Oscillator Strength                   Spin forbidden

     Occ.   36  a   ---  Virt.   39  a        0.92743
     Occ.   36  a   ---  Virt.   47  a       -0.28755
     Occ.   37  a   ---  Virt.   39  a       -0.07432
     Occ.   37  a   ---  Virt.   47  a        0.11559
     Occ.   38  a   ---  Virt.   40  a       -0.16416
  ----------------------------------------------------------------------------
  Root   6 triplet a              0.190483265 a.u.                5.1833 eV 
  ----------------------------------------------------------------------------
     Transition Moments                    Spin forbidden
     Oscillator Strength                   Spin forbidden

     Occ.   30  a   ---  Virt.   47  a       -0.05529
     Occ.   35  a   ---  Virt.   39  a       -0.59549
     Occ.   35  a   ---  Virt.   47  a       -0.09871
     Occ.   35  a   ---  Virt.   61  a       -0.06192
     Occ.   36  a   ---  Virt.   40  a       -0.21665
     Occ.   37  a   ---  Virt.   40  a       -0.14690
     Occ.   37  a   ---  Virt.   50  a       -0.38016
     Occ.   37  a   ---  Virt.   57  a        0.05154
     Occ.   37  a   ---  Virt.   77  a        0.05294
     Occ.   38  a   ---  Virt.   39  a       -0.08200
     Occ.   38  a   ---  Virt.   47  a       -0.61841
     Occ.   38  a   ---  Virt.   61  a       -0.05250
     Occ.   38  a   ---  Virt.   78  a        0.07110
  ----------------------------------------------------------------------------
  Root   7 triplet a              0.207767747 a.u.                5.6537 eV 
  ----------------------------------------------------------------------------
     Transition Moments                    Spin forbidden
     Oscillator Strength                   Spin forbidden

     Occ.   26  a   ---  Virt.   39  a        0.08712
     Occ.   26  a   ---  Virt.   47  a        0.07757
     Occ.   30  a   ---  Virt.   39  a       -0.10123
     Occ.   35  a   ---  Virt.   39  a        0.20718
     Occ.   36  a   ---  Virt.   40  a       -0.07999
     Occ.   37  a   ---  Virt.   40  a       -0.56909
     Occ.   37  a   ---  Virt.   50  a       -0.65326
     Occ.   37  a   ---  Virt.   57  a        0.08239
     Occ.   37  a   ---  Virt.   77  a        0.08437
     Occ.   37  a   ---  Virt.   86  a        0.05655
     Occ.   38  a   ---  Virt.   39  a        0.10379
     Occ.   38  a   ---  Virt.   47  a        0.36603
  ----------------------------------------------------------------------------
  Root   8 triplet a              0.221869236 a.u.                6.0374 eV 
  ----------------------------------------------------------------------------
     Transition Moments                    Spin forbidden
     Oscillator Strength                   Spin forbidden

     Occ.   35  a   ---  Virt.   43  a       -0.05904
     Occ.   35  a   ---  Virt.   45  a       -0.06596
     Occ.   37  a   ---  Virt.   41  a       -0.69672
     Occ.   37  a   ---  Virt.   42  a       -0.64130
     Occ.   37  a   ---  Virt.   44  a        0.06192
     Occ.   37  a   ---  Virt.   46  a        0.10681
     Occ.   37  a   ---  Virt.   49  a        0.14778
     Occ.   37  a   ---  Virt.   51  a       -0.07588
     Occ.   37  a   ---  Virt.   59  a        0.08151
     Occ.   37  a   ---  Virt.   66  a        0.10247
     Occ.   37  a   ---  Virt.   67  a       -0.07164
     Occ.   37  a   ---  Virt.   75  a        0.05969
     Occ.   38  a   ---  Virt.   43  a       -0.07142
     Occ.   38  a   ---  Virt.   45  a       -0.07376

              Target root =      1
          Target symmetry = none
      Ground state energy =   -440.956056159768
        Excitation energy =      0.138595068488
     Excited state energy =   -440.817461091281

  stored tddft:energy   -440.81746109128056     

 Task  times  cpu:    11670.2s     wall:    14001.0s


                                NWChem Input Module
                                -------------------


 Summary of allocated global arrays
-----------------------------------
  No active global arrays


MA_summarize_allocated_blocks: starting scan ...
heap block 'gridpts', handle 84, address 0x13fd8930:
	type of elements:		double precision
	number of elements:		5242756602
	address of client space:	0x13fd89c0
	index for client space:		13765775
	total number of bytes:		41942052968
MA_summarize_allocated_blocks: scan completed: 1 heap block, 0 stack blocks
MA usage statistics:

	allocation statistics:
					      heap	     stack
					      ----	     -----
	current number of blocks	         1	         0
	maximum number of blocks	        18	        53
	current total bytes		41942052968	         0
	maximum total bytes		41944343584	  57713576
	maximum total K-bytes		  41944344	     57714
	maximum total M-bytes		     41945	        58


                                     CITATION
                                     --------
                Please cite the following reference when publishing
                           results obtained with NWChem:

          E. Apra, E. J. Bylaska, W. A. de Jong, N. Govind, K. Kowalski,
       T. P. Straatsma, M. Valiev, H. J. J. van Dam, Y. Alexeev, J. Anchell,
       V. Anisimov, F. W. Aquino, R. Atta-Fynn, J. Autschbach, N. P. Bauman,
     J. C. Becca, D. E. Bernholdt, K. Bhaskaran-Nair, S. Bogatko, P. Borowski,
         J. Boschen, J. Brabec, A. Bruner, E. Cauet, Y. Chen, G. N. Chuev,
      C. J. Cramer, J. Daily, M. J. O. Deegan, T. H. Dunning Jr., M. Dupuis,
   K. G. Dyall, G. I. Fann, S. A. Fischer, A. Fonari, H. Fruchtl, L. Gagliardi,
      J. Garza, N. Gawande, S. Ghosh, K. Glaesemann, A. W. Gotz, J. Hammond,
       V. Helms, E. D. Hermes, K. Hirao, S. Hirata, M. Jacquelin, L. Jensen,
   B. G. Johnson, H. Jonsson, R. A. Kendall, M. Klemm, R. Kobayashi, V. Konkov,
      S. Krishnamoorthy, M. Krishnan, Z. Lin, R. D. Lins, R. J. Littlefield,
      A. J. Logsdail, K. Lopata, W. Ma, A. V. Marenich, J. Martin del Campo,
   D. Mejia-Rodriguez, J. E. Moore, J. M. Mullin, T. Nakajima, D. R. Nascimento,
    J. A. Nichols, P. J. Nichols, J. Nieplocha, A. Otero-de-la-Roza, B. Palmer,
    A. Panyala, T. Pirojsirikul, B. Peng, R. Peverati, J. Pittner, L. Pollack,
   R. M. Richard, P. Sadayappan, G. C. Schatz, W. A. Shelton, D. W. Silverstein,
   D. M. A. Smith, T. A. Soares, D. Song, M. Swart, H. L. Taylor, G. S. Thomas,
            V. Tipparaju, D. G. Truhlar, K. Tsemekhman, T. Van Voorhis,
      A. Vazquez-Mayagoitia, P. Verma, O. Villa, A. Vishnu, K. D. Vogiatzis,
        D. Wang, J. H. Weare, M. J. Williamson, T. L. Windus, K. Wolinski,
        A. T. Wong, Q. Wu, C. Yang, Q. Yu, M. Zacharias, Z. Zhang, Y. Zhao,
                                and R. J. Harrison
                        "NWChem: Past, present, and future
                         J. Chem. Phys. 152, 184102 (2020)
                               doi:10.1063/5.0004997

                                      AUTHORS
                                      -------
  E. Apra, E. J. Bylaska, N. Govind, K. Kowalski, M. Valiev, D. Mejia-Rodriguez,
       A. Kunitsa, N. P. Bauman, A. Panyala, W. A. de Jong, T. P. Straatsma,
   H. J. J. van Dam, D. Wang, T. L. Windus, J. Hammond, J. Autschbach, A. Woods,
    K. Bhaskaran-Nair, J. Brabec, K. Lopata, S. A. Fischer, S. Krishnamoorthy,
     M. Jacquelin, W. Ma, M. Klemm, O. Villa, Y. Chen, V. Anisimov, F. Aquino,
     S. Hirata, M. T. Hackler, E. Hermes, L. Jensen, J. E. Moore, J. C. Becca,
      V. Konjkov, T. Risthaus, M. Malagoli, A. Marenich, A. Otero-de-la-Roza,
        J. Mullin, P. Nichols, R. Peverati, J. Pittner, Y. Zhao, P.-D. Fan,
        A. Fonari, M. J. Williamson, R. J. Harrison, J. R. Rehr, M. Dupuis,
     D. Silverstein, D. M. A. Smith, J. Nieplocha, V. Tipparaju, M. Krishnan,
     B. E. Van Kuiken, A. Vazquez-Mayagoitia, M. Swart, Q. Wu, T. Van Voorhis,
     A. A. Auer, M. Nooijen, L. D. Crosby, E. Brown, G. Cisneros, G. I. Fann,
   H. Fruchtl, J. Garza, K. Hirao, R. A. Kendall, J. A. Nichols, K. Tsemekhman,
    K. Wolinski, J. Anchell, D. E. Bernholdt, P. Borowski, T. Clark, D. Clerc,
   H. Dachsel, M. J. O. Deegan, K. Dyall, D. Elwood, E. Glendening, M. Gutowski,
   A. C. Hess, J. Jaffe, B. G. Johnson, J. Ju, R. Kobayashi, R. Kutteh, Z. Lin,
   R. Littlefield, X. Long, B. Meng, T. Nakajima, S. Niu, L. Pollack, M. Rosing,
   K. Glaesemann, G. Sandrone, M. Stave, H. Taylor, G. Thomas, J. H. van Lenthe,
                               A. T. Wong, Z. Zhang.

 Total times  cpu:    11670.2s     wall:    14001.4s
