 argument  1 = /home/aditisingh4812/nw_chem/nwchem-run/nwchem-run/tddft/closed/lcwpbe/geom-MOL/quinoxaline.nw
                                         
                                         


             Northwest Computational Chemistry Package (NWChem) 7.2.3
             --------------------------------------------------------


                    Environmental Molecular Sciences Laboratory
                       Pacific Northwest National Laboratory
                                Richland, WA 99352

                              Copyright (c) 1994-2022
                       Pacific Northwest National Laboratory
                            Battelle Memorial Institute

             NWChem is an open-source computational chemistry package
                        distributed under the terms of the
                      Educational Community License (ECL) 2.0
             A copy of the license is included with this distribution
                              in the LICENSE.TXT file

                                  ACKNOWLEDGMENT
                                  --------------

            This software and its documentation were developed at the
            EMSL at Pacific Northwest National Laboratory, a multiprogram
            national laboratory, operated for the U.S. Department of Energy
            by Battelle under Contract Number DE-AC05-76RL01830. Support
            for this work was provided by the Department of Energy Office
            of Biological and Environmental Research, Office of Basic
            Energy Sciences, and the Office of Advanced Scientific Computing.


           Job information
           ---------------

    hostname        = p20
    program         = /home/aditisingh4812/nw_chem/nwchem-7.2.3-release.revision-d690e065-srconly.2024-08-27/nwchem-7.2.3/bin/LINUX64/nwchem
    date            = Wed Apr  9 08:27:28 2025

    compiled        = Mon_Apr_07_18:51:54_2025
    source          = /home/aditisingh4812/nw_chem/nwchem-7.2.3-release.revision-d690e065-srconly.2024-08-27/nwchem-7.2.3
    nwchem branch   = 7.2.3
    nwchem revision = d690e065
    ga revision     = 5.8.0
    use scalapack   = F
    input           = /home/aditisingh4812/nw_chem/nwchem-run/nwchem-run/tddft/closed/lcwpbe/geom-MOL/quinoxaline.nw
    prefix          = quinoxaline.
    data base       = ./quinoxaline.db
    status          = startup
    nproc           =       48
    time left       =     -1s



           Memory information
           ------------------

    heap     = ********** doubles = 100000.0 Mbytes
    stack    = ********** doubles = 100000.0 Mbytes
    global   = ********** doubles = 100000.0 Mbytes (distinct from heap & stack)
    total    = ********** doubles = 300000.0 Mbytes
    verify   = yes
    hardfail = no 


           Directory information
           ---------------------

  0 permanent = .
  0 scratch   = .




                                NWChem Input Module
                                -------------------



 Scaling coordinates for geometry "geometry" by  1.889725989
 (inverse scale =  0.529177249)



                             Geometry "geometry" -> ""
                             -------------------------

 Output coordinates in angstroms (scale by  1.889725989 to convert to a.u.)

  No.       Tag          Charge          X              Y              Z
 ---- ---------------- ---------- -------------- -------------- --------------
    1 C                    6.0000    -0.70821700     0.00000000    -0.04310591
    2 C                    6.0000     0.70821700     0.00000000    -0.04310591
    3 C                    6.0000    -1.40400800     0.00000000     1.18657709
    4 C                    6.0000     1.40400800     0.00000000     1.18657709
    5 C                    6.0000    -0.70760500     0.00000000     2.36834109
    6 C                    6.0000     0.70760500     0.00000000     2.36834109
    7 C                    6.0000    -0.70876200     0.00000000    -2.30875091
    8 C                    6.0000     0.70876200     0.00000000    -2.30875091
    9 N                    7.0000    -1.42036400     0.00000000    -1.20515291
   10 N                    7.0000     1.42036400     0.00000000    -1.20515291
   11 H                    1.0000    -2.48139600     0.00000000     1.15787509
   12 H                    1.0000     2.48139600     0.00000000     1.15787509
   13 H                    1.0000    -1.23813100     0.00000000     3.30654109
   14 H                    1.0000     1.23813100     0.00000000     3.30654109
   15 H                    1.0000    -1.24552400     0.00000000    -3.24671391
   16 H                    1.0000     1.24552400     0.00000000    -3.24671391

      Atomic Mass 
      ----------- 

      C                 12.000000
      N                 14.003070
      H                  1.007825


 Effective nuclear repulsion energy (a.u.)     467.7662281877

            Nuclear Dipole moment (a.u.) 
            ----------------------------
        X                 Y               Z
 ---------------- ---------------- ----------------
     0.0000000000     0.0000000000    -0.0000000000


            XYZ format geometry
            -------------------
    16
 geometry
 C                    -0.70821700     0.00000000    -0.04310591
 C                     0.70821700     0.00000000    -0.04310591
 C                    -1.40400800     0.00000000     1.18657709
 C                     1.40400800     0.00000000     1.18657709
 C                    -0.70760500     0.00000000     2.36834109
 C                     0.70760500     0.00000000     2.36834109
 C                    -0.70876200     0.00000000    -2.30875091
 C                     0.70876200     0.00000000    -2.30875091
 N                    -1.42036400     0.00000000    -1.20515291
 N                     1.42036400     0.00000000    -1.20515291
 H                    -2.48139600     0.00000000     1.15787509
 H                     2.48139600     0.00000000     1.15787509
 H                    -1.23813100     0.00000000     3.30654109
 H                     1.23813100     0.00000000     3.30654109
 H                    -1.24552400     0.00000000    -3.24671391
 H                     1.24552400     0.00000000    -3.24671391

 ==============================================================================
                                internuclear distances
 ------------------------------------------------------------------------------
       center one      |      center two      | atomic units |  angstroms
 ------------------------------------------------------------------------------
    2 C                |   1 C                |     2.67667  |     1.41643
    3 C                |   1 C                |     2.66997  |     1.41289
    4 C                |   2 C                |     2.66997  |     1.41289
    5 C                |   3 C                |     2.59213  |     1.37169
    6 C                |   4 C                |     2.59213  |     1.37169
    6 C                |   5 C                |     2.67436  |     1.41521
    8 C                |   7 C                |     2.67873  |     1.41752
    9 N                |   1 C                |     2.57551  |     1.36290
    9 N                |   7 C                |     2.48145  |     1.31313
   10 N                |   2 C                |     2.57551  |     1.36290
   10 N                |   8 C                |     2.48145  |     1.31313
   11 H                |   3 C                |     2.03669  |     1.07777
   12 H                |   4 C                |     2.03669  |     1.07777
   13 H                |   5 C                |     2.03677  |     1.07781
   14 H                |   6 C                |     2.03677  |     1.07781
   15 H                |   7 C                |     2.04221  |     1.08069
   16 H                |   8 C                |     2.04221  |     1.08069
 ------------------------------------------------------------------------------
                         number of included internuclear distances:         17
 ==============================================================================



 ==============================================================================
                                 internuclear angles
 ------------------------------------------------------------------------------
        center 1       |       center 2       |       center 3       |  degrees
 ------------------------------------------------------------------------------
    2 C                |   1 C                |   3 C                |   119.50
    2 C                |   1 C                |   9 N                |   121.50
    3 C                |   1 C                |   9 N                |   119.00
    1 C                |   2 C                |   4 C                |   119.50
    1 C                |   2 C                |  10 N                |   121.50
    4 C                |   2 C                |  10 N                |   119.00
    1 C                |   3 C                |   5 C                |   119.99
    1 C                |   3 C                |  11 H                |   117.98
    5 C                |   3 C                |  11 H                |   122.04
    2 C                |   4 C                |   6 C                |   119.99
    2 C                |   4 C                |  12 H                |   117.98
    6 C                |   4 C                |  12 H                |   122.04
    3 C                |   5 C                |   6 C                |   120.51
    3 C                |   5 C                |  13 H                |   120.00
    6 C                |   5 C                |  13 H                |   119.49
    4 C                |   6 C                |   5 C                |   120.51
    4 C                |   6 C                |  14 H                |   120.00
    5 C                |   6 C                |  14 H                |   119.49
    8 C                |   7 C                |   9 N                |   122.81
    8 C                |   7 C                |  15 H                |   119.78
    9 N                |   7 C                |  15 H                |   117.41
    7 C                |   8 C                |  10 N                |   122.81
    7 C                |   8 C                |  16 H                |   119.78
   10 N                |   8 C                |  16 H                |   117.41
    1 C                |   9 N                |   7 C                |   115.68
    2 C                |  10 N                |   8 C                |   115.68
 ------------------------------------------------------------------------------
                            number of included internuclear angles:         26
 ==============================================================================





 Summary of "ao basis" -> "" (cartesian)
 ------------------------------------------------------------------------------
       Tag                 Description            Shells   Functions and Types
 ---------------- ------------------------------  ------  ---------------------
 *                         def2-TZVPD                 on all atoms 


  pbe96 is a nonlocal functional; adding pw91lda local functional. 

                                 NWChem DFT Module
                                 -----------------


                      Basis "ao basis" -> "ao basis" (cartesian)
                      -----
  C (Carbon)
  ----------
            Exponent  Coefficients 
       -------------- ---------------------------------------------------------
  1 S  1.35753497E+04  0.000222
  1 S  2.03523337E+03  0.001723
  1 S  4.63225624E+02  0.008926
  1 S  1.31200196E+02  0.035728
  1 S  4.28530159E+01  0.110763
  1 S  1.55841858E+01  0.242956

  2 S  6.20671385E+00  0.414403
  2 S  2.57648965E+00  0.237450

  3 S  5.76963394E-01  1.000000

  4 S  2.29728314E-01  1.000000

  5 S  9.51644400E-02  1.000000

  6 S  4.84754014E-02  1.000000

  7 P  3.46972322E+01  0.005333
  7 P  7.95826228E+00  0.035864
  7 P  2.37808269E+00  0.142159
  7 P  8.14332082E-01  0.342705

  8 P  2.88875473E-01  1.000000

  9 P  1.00568237E-01  1.000000

 10 D  1.09700000E+00  1.000000

 11 D  3.18000000E-01  1.000000

 12 D  9.09853364E-02  1.000000

 13 F  7.61000000E-01  1.000000

  N (Nitrogen)
  ------------
            Exponent  Coefficients 
       -------------- ---------------------------------------------------------
  1 S  1.97308006E+04  0.000219
  1 S  2.95789587E+03  0.001696
  1 S  6.73221336E+02  0.008795
  1 S  1.90682495E+02  0.035359
  1 S  6.22954419E+01  0.110958
  1 S  2.26541612E+01  0.249830

  2 S  8.97914774E+00  0.406239
  2 S  3.68630024E+00  0.243382

  3 S  8.46600768E-01  1.000000

  4 S  3.36471338E-01  1.000000

  5 S  1.36476537E-01  1.000000

  6 S  6.84416058E-02  1.000000

  7 P  4.92003805E+01  0.005555
  7 P  1.13467905E+01  0.038052
  7 P  3.42739724E+00  0.149537
  7 P  1.17855251E+00  0.349493

  8 P  4.16422050E-01  1.000000

  9 P  1.42608260E-01  1.000000

 10 D  1.65400000E+00  1.000000

 11 D  4.69000000E-01  1.000000

 12 D  1.28296421E-01  1.000000

 13 F  1.09300000E+00  1.000000

  H (Hydrogen)
  ------------
            Exponent  Coefficients 
       -------------- ---------------------------------------------------------
  1 S  3.40613410E+01  0.006025
  1 S  5.12357460E+00  0.045021
  1 S  1.16466260E+00  0.201897

  2 S  3.27230410E-01  1.000000

  3 S  1.03072410E-01  1.000000

  4 P  8.00000000E-01  1.000000

  5 P  9.57741296E-02  1.000000



 Summary of "ao basis" -> "ao basis" (cartesian)
 ------------------------------------------------------------------------------
       Tag                 Description            Shells   Functions and Types
 ---------------- ------------------------------  ------  ---------------------
 C                         def2-TZVPD               13       43   6s3p3d1f
 N                         def2-TZVPD               13       43   6s3p3d1f
 H                         def2-TZVPD                5        9   3s2p




 Summary of "ao basis" -> "ao basis" (cartesian)
 ------------------------------------------------------------------------------
       Tag                 Description            Shells   Functions and Types
 ---------------- ------------------------------  ------  ---------------------
 C                         def2-TZVPD               13       43   6s3p3d1f
 N                         def2-TZVPD               13       43   6s3p3d1f
 H                         def2-TZVPD                5        9   3s2p


  int_init: cando_txs set to always be  F
  Caching 1-el integrals 

            General Information
            -------------------
          SCF calculation type: DFT
          Wavefunction type:  closed shell.
          No. of atoms     :    16
          No. of electrons :    68
           Alpha electrons :    34
            Beta electrons :    34
          Charge           :     0
          Spin multiplicity:     1
          Use of symmetry is: off; symmetry adaption is: off
          Maximum number of iterations:  50
          AO basis - number of functions:   484
                     number of shells:   160
          Convergence on energy requested:  1.00D-06
          Convergence on density requested:  1.00D-05
          Convergence on gradient requested:  5.00D-04

              XC Information
              --------------
                     Hartree-Fock (Exact) Exchange  1.000          
                     LC-wPBE(h)Exchange Functional  1.000          
            Perdew 1991 LDA Correlation Functional  1.000 local    
           PerdewBurkeErnz. Correlation Functional  1.000 non-local

           Range-Separation Parameters        
           ---------------------------
           Alpha           :  0.00
           Beta            :  1.00
           Gamma           :  0.27
           Short-Range HF  :     F

             Grid Information
             ----------------
          Grid used for XC integration:  xfine     
          Radial quadrature: Mura-Knowles        
          Angular quadrature: Lebedev. 
          Tag              B.-S. Rad. Rad. Pts. Rad. Cut. Ang. Pts.
          ---              ---------- --------- --------- ---------
          C                   0.70      100          15.0      1454
          N                   0.65      100          14.0      1454
          H                   0.35      100          17.0      1202
          Grid pruning is: on 
          Number of quadrature shells:  1600
          Spatial weights used:  Erf1

          Convergence Information
          -----------------------
          Convergence aids based upon iterative change in 
          total energy or number of iterations. 
          Levelshifting, if invoked, occurs when the 
          HOMO/LUMO gap drops below (HL_TOL):  1.00D-02
          DIIS, if invoked, will attempt to extrapolate 
          using up to (NFOCK): 10 stored Fock matrices.

                    Damping( 0%)  Levelshifting(0.5)       DIIS
                  --------------- ------------------- ---------------
          dE  on:    start            ASAP                start   
          dE off:    2 iters         50 iters            50 iters 


      Screening Tolerance Information
      -------------------------------
          Density screening/tol_rho:  1.00D-10
          AO Gaussian exp screening on grid/accAOfunc:  14
          CD Gaussian exp screening on grid/accCDfunc:  20
          XC Gaussian exp screening on grid/accXCfunc:  20
          Schwarz screening/accCoul:  1.00D-08

  
  CAM type calculations without CDFIT are
  only available with the direct option.
  Forcing Direct SCF
  

 WARNING : Found    14 linear dependencies 
 S eigenvalue threshold:     1.00000E-05
 Smallest S eigenvalue :     1.63712E-08
 Largest  S eigenvalue :     7.80170E-06


 !! The overlap matrix has  14 vectors deemed linearly dependent with
    eigenvalues:
 1.64D-08 2.93D-07 5.49D-07 7.61D-07 7.91D-07 1.36D-06 1.93D-06 2.34D-06
 2.74D-06 3.98D-06 4.68D-06 5.24D-06 7.01D-06 7.80D-06


      Superposition of Atomic Density Guess
      -------------------------------------

 Sum of atomic energies:        -412.99261380

      Non-variational initial energy
      ------------------------------

 Total energy =    -420.092030
 1-e energy   =   -1483.561029
 2-e energy   =     595.702770
 HOMO         =      -0.278560
 LUMO         =      -0.101516

  WARNING: movecs_in_org=atomic not equal to movecs_in=./quinoxaline.movecs
   Time after variat. SCF:     31.4
   Time prior to 1st pass:     31.4

 Grid_pts file          = ./quinoxaline.gridpts.00
 Record size in doubles =  12289        No. of grid_pts per rec  =   3070
 Max. records in memory =     19        Max. recs in file   =  21109390

 Grid integrated density:      67.953701419345
 Requested integration accuracy:   0.10E-07

           Memory utilization after 1st SCF pass: 
           Heap Space remaining (MW):     7864.20          7864201570
          Stack Space remaining (MW):    13107.20         13107197180

   convergence    iter        energy       DeltaE   RMS-Dens  Diis-err    time
 ---------------- ----- ----------------- --------- --------- ---------  ------
 d= 0,ls=0.0,diis     1   -415.7477754393 -8.84D+02  2.62D+02  1.12D+04    85.6
 Grid integrated density:      68.000045215459
 Requested integration accuracy:   0.10E-07
 d= 0,ls=0.0,diis     2   -397.0646146733  1.87D+01  2.02D+02  1.02D+02   147.6
 Grid integrated density:      68.000018790268
 Requested integration accuracy:   0.10E-07
 d= 0,ls=0.0,diis     3   -408.1640518001 -1.11D+01  4.62D+01  5.79D+01   206.6
 Grid integrated density:      68.000013296843
 Requested integration accuracy:   0.10E-07
 d= 0,ls=0.0,diis     4   -410.7487329442 -2.58D+00  1.76D+02  4.10D+01   275.4
 Grid integrated density:      68.000000935730
 Requested integration accuracy:   0.10E-07
 d= 0,ls=0.0,diis     5   -417.1167476516 -6.37D+00  9.28D-02  5.03D+00   332.3
 Grid integrated density:      68.000001084152
 Requested integration accuracy:   0.10E-07
 d= 0,ls=0.0,diis     6   -417.5230885267 -4.06D-01  7.29D-03  1.95D+00   387.4
 Grid integrated density:      68.000001170013
 Requested integration accuracy:   0.10E-07
 d= 0,ls=0.0,diis     7   -417.7005635664 -1.77D-01  2.48D-03  1.43D-01   439.6
 Grid integrated density:      68.000001226807
 Requested integration accuracy:   0.10E-07
  Resetting Diis
 d= 0,ls=0.0,diis     8   -417.7174662692 -1.69D-02  7.98D-04  7.60D-03   503.7
 d= 0,ls=0.0,diis     9   -417.7185529321 -1.09D-03  1.84D-03  1.18D-03   556.5
 d= 0,ls=0.0,diis    10   -417.7186704841 -1.18D-04  1.43D-04  1.25D-03   611.9
 d= 0,ls=0.0,diis    11   -417.7188343465 -1.64D-04  1.77D-04  6.28D-05   664.2
 d= 0,ls=0.0,diis    12   -417.7188653761 -3.10D-05  6.10D-05  2.43D-05   716.7
 d= 0,ls=0.0,diis    13   -417.7188770334 -1.17D-05  3.57D-05  2.86D-06   780.5
 d= 0,ls=0.0,diis    14   -417.7188792181 -2.18D-06  1.35D-05  9.04D-07   840.8
 d= 0,ls=0.0,diis    15   -417.7188794270 -2.09D-07  4.30D-06  8.64D-08   894.5


         Total DFT energy =     -417.718879427002
      One electron energy =    -1491.002432041516
           Coulomb energy =      664.614261225868
    Exchange-Corr. energy =      -59.096936799102
 Nuclear repulsion energy =      467.766228187748

 Numeric. integr. density =       68.000000184441

     Total iterative time =    863.2s



                       DFT Final Molecular Orbital Analysis
                       ------------------------------------

 Vector    1  Occ=2.000000D+00  E=-1.415889D+01
              MO Center= -1.1D+00,  1.1D-12, -1.2D+00, r^2= 7.6D-01
   Bfn.  Coefficient  Atom+Function         Bfn.  Coefficient  Atom+Function  
  ----- ------------  ---------------      ----- ------------  ---------------
   346      0.586608   9 N  s               345      0.425763   9 N  s         
   389     -0.198302  10 N  s               388     -0.143935  10 N  s         
   348     -0.105474   9 N  s               347      0.093294   9 N  s         
   391      0.035577  10 N  s               390     -0.030768  10 N  s         

 Vector    2  Occ=2.000000D+00  E=-1.415888D+01
              MO Center=  1.1D+00, -3.8D-11, -1.2D+00, r^2= 7.6D-01
   Bfn.  Coefficient  Atom+Function         Bfn.  Coefficient  Atom+Function  
  ----- ------------  ---------------      ----- ------------  ---------------
   389      0.586613  10 N  s               388      0.425763  10 N  s         
   346      0.198319   9 N  s               345      0.143934   9 N  s         
   391     -0.105535  10 N  s               390      0.093883  10 N  s         
   348     -0.035757   9 N  s               347      0.032509   9 N  s         

 Vector    3  Occ=2.000000D+00  E=-1.008964D+01
              MO Center=  2.8D-02, -1.3D-12, -2.3D+00, r^2= 5.3D-01
   Bfn.  Coefficient  Atom+Function         Bfn.  Coefficient  Atom+Function  
  ----- ------------  ---------------      ----- ------------  ---------------
   303      0.432005   8 C  s               260      0.415514   7 C  s         
   302      0.337325   8 C  s               259      0.324448   7 C  s         
   304      0.074316   8 C  s               305     -0.074673   8 C  s         
   262     -0.071882   7 C  s               261      0.071499   7 C  s         

 Vector    4  Occ=2.000000D+00  E=-1.008931D+01
              MO Center= -2.8D-02, -1.2D-12, -2.3D+00, r^2= 5.3D-01
   Bfn.  Coefficient  Atom+Function         Bfn.  Coefficient  Atom+Function  
  ----- ------------  ---------------      ----- ------------  ---------------
   260      0.432060   7 C  s               303     -0.415572   8 C  s         
   259      0.337374   7 C  s               302     -0.324499   8 C  s         
   261      0.073830   7 C  s               262     -0.073180   7 C  s         
   304     -0.070993   8 C  s               305      0.070328   8 C  s         

 Vector    5  Occ=2.000000D+00  E=-1.008811D+01
              MO Center= -5.4D-02,  3.6D-13, -4.3D-02, r^2= 5.3D-01
   Bfn.  Coefficient  Atom+Function         Bfn.  Coefficient  Atom+Function  
  ----- ------------  ---------------      ----- ------------  ---------------
     2      0.439592   1 C  s                45      0.407486   2 C  s         
     1      0.343254   1 C  s                44      0.318183   2 C  s         
     3      0.075177   1 C  s                 4     -0.074757   1 C  s         
    46      0.069717   2 C  s                47     -0.069490   2 C  s         

 Vector    6  Occ=2.000000D+00  E=-1.008777D+01
              MO Center=  5.4D-02, -9.9D-13, -4.3D-02, r^2= 5.3D-01
   Bfn.  Coefficient  Atom+Function         Bfn.  Coefficient  Atom+Function  
  ----- ------------  ---------------      ----- ------------  ---------------
    45     -0.439649   2 C  s                 2      0.407547   1 C  s         
    44     -0.343302   2 C  s                 1      0.318235   1 C  s         
    46     -0.074788   2 C  s                47      0.072233   2 C  s         
     3      0.069296   1 C  s                 4     -0.066767   1 C  s         

 Vector    7  Occ=2.000000D+00  E=-1.005749D+01
              MO Center= -3.2D-02,  4.8D-13,  2.4D+00, r^2= 5.3D-01
   Bfn.  Coefficient  Atom+Function         Bfn.  Coefficient  Atom+Function  
  ----- ------------  ---------------      ----- ------------  ---------------
   174      0.432735   5 C  s               217      0.413634   6 C  s         
   173      0.337897   5 C  s               216      0.322982   6 C  s         
   175      0.074556   5 C  s               176     -0.074194   5 C  s         
   218      0.071288   6 C  s               219     -0.070969   6 C  s         

 Vector    8  Occ=2.000000D+00  E=-1.005715D+01
              MO Center=  3.2D-02,  4.2D-13,  2.4D+00, r^2= 5.4D-01
   Bfn.  Coefficient  Atom+Function         Bfn.  Coefficient  Atom+Function  
  ----- ------------  ---------------      ----- ------------  ---------------
   217     -0.432690   6 C  s               174      0.413578   5 C  s         
   216     -0.337872   6 C  s               173      0.322948   5 C  s         
   218     -0.074041   6 C  s               219      0.073082   6 C  s         
   175      0.070748   5 C  s               176     -0.069804   5 C  s         

 Vector    9  Occ=2.000000D+00  E=-1.005256D+01
              MO Center= -1.3D+00,  3.4D-13,  1.2D+00, r^2= 2.9D-01
   Bfn.  Coefficient  Atom+Function         Bfn.  Coefficient  Atom+Function  
  ----- ------------  ---------------      ----- ------------  ---------------
    88      0.588491   3 C  s                87      0.459537   3 C  s         
   131     -0.109120   4 C  s                89      0.101081   3 C  s         
    90     -0.100062   3 C  s               130     -0.085214   4 C  s         
   174     -0.031718   5 C  s         

 Vector   10  Occ=2.000000D+00  E=-1.005253D+01
              MO Center=  1.3D+00, -4.3D-13,  1.2D+00, r^2= 2.9D-01
   Bfn.  Coefficient  Atom+Function         Bfn.  Coefficient  Atom+Function  
  ----- ------------  ---------------      ----- ------------  ---------------
   131      0.588525   4 C  s               130      0.459561   4 C  s         
    88      0.109270   3 C  s               132      0.101144   4 C  s         
   133     -0.100374   4 C  s                87      0.085320   3 C  s         
   217     -0.031130   6 C  s         

 Vector   11  Occ=2.000000D+00  E=-1.064652D+00
              MO Center= -1.0D-04,  1.2D-09, -1.1D+00, r^2= 2.0D+00
   Bfn.  Coefficient  Atom+Function         Bfn.  Coefficient  Atom+Function  
  ----- ------------  ---------------      ----- ------------  ---------------
   348      0.182177   9 N  s               391      0.182154  10 N  s         
   347      0.170066   9 N  s               390      0.170046  10 N  s         
     3      0.123146   1 C  s                46      0.123132   2 C  s         
     4      0.118567   1 C  s                47      0.118551   2 C  s         
   261      0.116969   7 C  s               304      0.116964   8 C  s         

 Vector   12  Occ=2.000000D+00  E=-9.931843D-01
              MO Center=  9.6D-05,  8.2D-10, -1.2D+00, r^2= 2.2D+00
   Bfn.  Coefficient  Atom+Function         Bfn.  Coefficient  Atom+Function  
  ----- ------------  ---------------      ----- ------------  ---------------
   348      0.220794   9 N  s               391     -0.220814  10 N  s         
   347      0.213911   9 N  s               390     -0.213926  10 N  s         
   346     -0.137691   9 N  s               389      0.137702  10 N  s         
     4      0.101108   1 C  s                47     -0.101111   2 C  s         
     3      0.093253   1 C  s                46     -0.093256   2 C  s         

 Vector   13  Occ=2.000000D+00  E=-9.436945D-01
              MO Center= -1.3D-04, -3.7D-11,  9.7D-01, r^2= 3.3D+00
   Bfn.  Coefficient  Atom+Function         Bfn.  Coefficient  Atom+Function  
  ----- ------------  ---------------      ----- ------------  ---------------
   175      0.152206   5 C  s               218      0.152192   6 C  s         
    89      0.140794   3 C  s               132      0.140767   4 C  s         
   176      0.131191   5 C  s               219      0.131179   6 C  s         
    90      0.117851   3 C  s               133      0.117828   4 C  s         
     3      0.101078   1 C  s                46      0.101070   2 C  s         

 Vector   14  Occ=2.000000D+00  E=-8.529412D-01
              MO Center= -5.4D-05, -4.2D-10, -4.0D-02, r^2= 5.4D+00
   Bfn.  Coefficient  Atom+Function         Bfn.  Coefficient  Atom+Function  
  ----- ------------  ---------------      ----- ------------  ---------------
   262     -0.156719   7 C  s               305     -0.156706   8 C  s         
     4      0.154422   1 C  s                47      0.154416   2 C  s         
   175     -0.152496   5 C  s               218     -0.152481   6 C  s         
   261     -0.150450   7 C  s               304     -0.150446   8 C  s         
     3      0.136178   1 C  s                46      0.136173   2 C  s         

 Vector   15  Occ=2.000000D+00  E=-8.440411D-01
              MO Center=  6.3D-05, -3.1D-10,  9.2D-01, r^2= 3.7D+00
   Bfn.  Coefficient  Atom+Function         Bfn.  Coefficient  Atom+Function  
  ----- ------------  ---------------      ----- ------------  ---------------
    89      0.201362   3 C  s               132     -0.201365   4 C  s         
    90      0.180094   3 C  s               133     -0.180093   4 C  s         
    88     -0.123220   3 C  s               131      0.123224   4 C  s         
   176      0.105978   5 C  s               219     -0.106010   6 C  s         
   175      0.104162   5 C  s               218     -0.104196   6 C  s         

 Vector   16  Occ=2.000000D+00  E=-7.610978D-01
              MO Center= -2.1D-05, -1.5D-09, -5.6D-01, r^2= 5.6D+00
   Bfn.  Coefficient  Atom+Function         Bfn.  Coefficient  Atom+Function  
  ----- ------------  ---------------      ----- ------------  ---------------
   348     -0.144413   9 N  s               391     -0.144414  10 N  s         
   262      0.142060   7 C  s               305      0.142053   8 C  s         
   261      0.128408   7 C  s               304      0.128407   8 C  s         
   347     -0.117975   9 N  s               390     -0.117976  10 N  s         
   176     -0.111982   5 C  s               219     -0.111965   6 C  s         

 Vector   17  Occ=2.000000D+00  E=-7.393082D-01
              MO Center=  6.8D-06, -3.4D-10, -1.4D-01, r^2= 5.5D+00
   Bfn.  Coefficient  Atom+Function         Bfn.  Coefficient  Atom+Function  
  ----- ------------  ---------------      ----- ------------  ---------------
     4      0.168218   1 C  s                47     -0.168227   2 C  s         
   353      0.155103   9 N  pz              396     -0.155099  10 N  pz        
   262     -0.152407   7 C  s               305      0.152408   8 C  s         
   175     -0.124168   5 C  s               218      0.124185   6 C  s         
   261     -0.121434   7 C  s               304      0.121438   8 C  s         

 Vector   18  Occ=2.000000D+00  E=-7.021749D-01
              MO Center= -2.3D-05,  1.2D-10,  5.9D-01, r^2= 4.1D+00
   Bfn.  Coefficient  Atom+Function         Bfn.  Coefficient  Atom+Function  
  ----- ------------  ---------------      ----- ------------  ---------------
    90      0.185295   3 C  s               133      0.185297   4 C  s         
     7     -0.159602   1 C  px               50      0.159604   2 C  px        
    89      0.151799   3 C  s               132      0.151804   4 C  s         
     4     -0.113862   1 C  s                47     -0.113850   2 C  s         
     3     -0.096359   1 C  s                46     -0.096351   2 C  s         

 Vector   19  Occ=2.000000D+00  E=-6.335322D-01
              MO Center= -2.0D-04,  3.2D-10, -3.1D-01, r^2= 5.5D+00
   Bfn.  Coefficient  Atom+Function         Bfn.  Coefficient  Atom+Function  
  ----- ------------  ---------------      ----- ------------  ---------------
   353      0.171809   9 N  pz              396      0.171765  10 N  pz        
   265      0.165430   7 C  px              308     -0.165399   8 C  px        
   181      0.105456   5 C  pz              224      0.105418   6 C  pz        
    93     -0.099094   3 C  px              136      0.099083   4 C  px        
     9     -0.097872   1 C  pz               52     -0.097791   2 C  pz        

 Vector   20  Occ=2.000000D+00  E=-6.299469D-01
              MO Center=  1.6D-04, -9.3D-10,  3.3D-01, r^2= 7.0D+00
   Bfn.  Coefficient  Atom+Function         Bfn.  Coefficient  Atom+Function  
  ----- ------------  ---------------      ----- ------------  ---------------
   176      0.152403   5 C  s               219     -0.152444   6 C  s         
   175      0.126113   5 C  s               218     -0.126129   6 C  s         
     9     -0.124284   1 C  pz               52      0.124337   2 C  pz        
   262     -0.117630   7 C  s               305      0.117625   8 C  s         
    95      0.115788   3 C  pz              138     -0.115757   4 C  pz        

 Vector   21  Occ=2.000000D+00  E=-6.031018D-01
              MO Center= -1.8D-05, -7.7D-10, -5.9D-01, r^2= 6.0D+00
   Bfn.  Coefficient  Atom+Function         Bfn.  Coefficient  Atom+Function  
  ----- ------------  ---------------      ----- ------------  ---------------
   267      0.141856   7 C  pz              310      0.141857   8 C  pz        
   179     -0.121409   5 C  px              222      0.121418   6 C  px        
   263     -0.121737   7 C  s               306     -0.121696   8 C  s         
    95      0.113371   3 C  pz              138      0.113376   4 C  pz        
   468     -0.104582  15 H  s               477     -0.104579  16 H  s         

 Vector   22  Occ=2.000000D+00  E=-5.607822D-01
              MO Center= -8.6D-05, -1.3D-09,  7.7D-01, r^2= 5.9D+00
   Bfn.  Coefficient  Atom+Function         Bfn.  Coefficient  Atom+Function  
  ----- ------------  ---------------      ----- ------------  ---------------
     7      0.148361   1 C  px               50     -0.148358   2 C  px        
   265     -0.145669   7 C  px              308      0.145672   8 C  px        
   181      0.142507   5 C  pz              224      0.142491   6 C  pz        
   179     -0.126106   5 C  px              222      0.126109   6 C  px        
   450      0.116585  13 H  s               459      0.116581  14 H  s         

 Vector   23  Occ=2.000000D+00  E=-5.429600D-01
              MO Center= -7.7D-05,  1.2D-09, -7.1D-01, r^2= 3.2D+00
   Bfn.  Coefficient  Atom+Function         Bfn.  Coefficient  Atom+Function  
  ----- ------------  ---------------      ----- ------------  ---------------
     8      0.165867   1 C  py               51      0.165858   2 C  py        
   352      0.165495   9 N  py              395      0.165481  10 N  py        
   355      0.138940   9 N  py              398      0.138929  10 N  py        
    11      0.134572   1 C  py               54      0.134565   2 C  py        
   266      0.132275   7 C  py              309      0.132266   8 C  py        

 Vector   24  Occ=2.000000D+00  E=-5.336256D-01
              MO Center=  2.2D-06, -5.9D-10,  2.7D-01, r^2= 6.9D+00
   Bfn.  Coefficient  Atom+Function         Bfn.  Coefficient  Atom+Function  
  ----- ------------  ---------------      ----- ------------  ---------------
    93      0.191979   3 C  px              136      0.191978   4 C  px        
   432     -0.149686  11 H  s               441      0.149686  12 H  s         
     4      0.112325   1 C  s                47     -0.112325   2 C  s         
   431     -0.111861  11 H  s               440      0.111861  12 H  s         
   267     -0.110792   7 C  pz              310      0.110800   8 C  pz        

 Vector   25  Occ=2.000000D+00  E=-5.224904D-01
              MO Center= -6.9D-05, -1.1D-10,  3.1D-02, r^2= 5.6D+00
   Bfn.  Coefficient  Atom+Function         Bfn.  Coefficient  Atom+Function  
  ----- ------------  ---------------      ----- ------------  ---------------
    95      0.182726   3 C  pz              138      0.182697   4 C  pz        
   263      0.155587   7 C  s               306      0.155595   8 C  s         
     9     -0.147373   1 C  pz               52     -0.147388   2 C  pz        
   267     -0.139198   7 C  pz              310     -0.139228   8 C  pz        
   181     -0.133968   5 C  pz              224     -0.133888   6 C  pz        

 Vector   26  Occ=2.000000D+00  E=-5.159622D-01
              MO Center=  2.7D-05,  4.9D-10,  6.7D-02, r^2= 7.4D+00
   Bfn.  Coefficient  Atom+Function         Bfn.  Coefficient  Atom+Function  
  ----- ------------  ---------------      ----- ------------  ---------------
    93      0.154817   3 C  px              136      0.154828   4 C  px        
   267      0.148545   7 C  pz              310     -0.148501   8 C  pz        
   181     -0.143416   5 C  pz              224      0.143481   6 C  pz        
    99      0.114168   3 C  px              142      0.114173   4 C  px        
   468     -0.112206  15 H  s               477      0.112174  16 H  s         

 Vector   27  Occ=2.000000D+00  E=-4.571305D-01
              MO Center= -7.8D-05, -6.2D-09,  6.0D-01, r^2= 5.4D+00
   Bfn.  Coefficient  Atom+Function         Bfn.  Coefficient  Atom+Function  
  ----- ------------  ---------------      ----- ------------  ---------------
   180      0.180960   5 C  py              223      0.180940   6 C  py        
   183      0.157595   5 C  py              226      0.157578   6 C  py        
   266     -0.144383   7 C  py              309     -0.144395   8 C  py        
    94      0.140156   3 C  py              137      0.140118   4 C  py        
   269     -0.124626   7 C  py              312     -0.124636   8 C  py        

 Vector   28  Occ=2.000000D+00  E=-4.529192D-01
              MO Center= -3.0D-05,  5.8D-09,  1.4D+00, r^2= 4.7D+00
   Bfn.  Coefficient  Atom+Function         Bfn.  Coefficient  Atom+Function  
  ----- ------------  ---------------      ----- ------------  ---------------
   179      0.223787   5 C  px              222     -0.223794   6 C  px        
   185      0.165649   5 C  px              228     -0.165679   6 C  px        
    93     -0.163717   3 C  px              136      0.163750   4 C  px        
   432      0.136783  11 H  s               441      0.136804  12 H  s         
   182      0.128642   5 C  px              225     -0.128647   6 C  px        

 Vector   29  Occ=2.000000D+00  E=-4.498093D-01
              MO Center=  3.2D-04,  3.5D-10,  8.9D-01, r^2= 5.9D+00
   Bfn.  Coefficient  Atom+Function         Bfn.  Coefficient  Atom+Function  
  ----- ------------  ---------------      ----- ------------  ---------------
    95      0.188873   3 C  pz              138     -0.188899   4 C  pz        
   181     -0.180320   5 C  pz              224      0.180359   6 C  pz        
     9     -0.146471   1 C  pz               52      0.146546   2 C  pz        
   353      0.135306   9 N  pz              396     -0.135310  10 N  pz        
   187     -0.130005   5 C  pz              230      0.130025   6 C  pz        

 Vector   30  Occ=2.000000D+00  E=-4.401731D-01
              MO Center=  5.8D-05, -9.1D-10, -8.4D-01, r^2= 3.3D+00
   Bfn.  Coefficient  Atom+Function         Bfn.  Coefficient  Atom+Function  
  ----- ------------  ---------------      ----- ------------  ---------------
   352      0.236247   9 N  py              395     -0.236243  10 N  py        
   355      0.202143   9 N  py              398     -0.202139  10 N  py        
     8      0.129017   1 C  py               51     -0.129033   2 C  py        
   358      0.117783   9 N  py              401     -0.117783  10 N  py        
   266      0.112732   7 C  py              309     -0.112723   8 C  py        

 Vector   31  Occ=2.000000D+00  E=-4.015220D-01
              MO Center= -1.2D-04,  2.3D-09, -1.2D+00, r^2= 3.6D+00
   Bfn.  Coefficient  Atom+Function         Bfn.  Coefficient  Atom+Function  
  ----- ------------  ---------------      ----- ------------  ---------------
   351     -0.285109   9 N  px              394     -0.285082  10 N  px        
   350      0.270053   9 N  s               393     -0.270026  10 N  s         
   354     -0.191628   9 N  px              397     -0.191609  10 N  px        
   357     -0.184907   9 N  px              400     -0.184894  10 N  px        
   348      0.154902   9 N  s               391     -0.154892  10 N  s         

 Vector   32  Occ=2.000000D+00  E=-3.489611D-01
              MO Center= -2.3D-06, -4.7D-10,  1.1D-01, r^2= 5.0D+00
   Bfn.  Coefficient  Atom+Function         Bfn.  Coefficient  Atom+Function  
  ----- ------------  ---------------      ----- ------------  ---------------
     8      0.198158   1 C  py               51      0.198151   2 C  py        
   180     -0.176305   5 C  py              223     -0.176311   6 C  py        
    11      0.169561   1 C  py               54      0.169555   2 C  py        
   266     -0.169405   7 C  py              309     -0.169399   8 C  py        
   183     -0.152881   5 C  py              226     -0.152887   6 C  py        

 Vector   33  Occ=2.000000D+00  E=-3.371042D-01
              MO Center=  1.7D-04,  8.2D-10, -1.2D+00, r^2= 3.9D+00
   Bfn.  Coefficient  Atom+Function         Bfn.  Coefficient  Atom+Function  
  ----- ------------  ---------------      ----- ------------  ---------------
   351      0.252984   9 N  px              394     -0.253017  10 N  px        
   350     -0.219164   9 N  s               393     -0.219197  10 N  s         
   354      0.190609   9 N  px              397     -0.190632  10 N  px        
     7     -0.153533   1 C  px               50      0.153533   2 C  px        
   265     -0.149341   7 C  px              308      0.149340   8 C  px        

 Vector   34  Occ=2.000000D+00  E=-3.356686D-01
              MO Center=  6.1D-05,  6.2D-10,  8.2D-01, r^2= 4.4D+00
   Bfn.  Coefficient  Atom+Function         Bfn.  Coefficient  Atom+Function  
  ----- ------------  ---------------      ----- ------------  ---------------
    94      0.231900   3 C  py              137     -0.231906   4 C  py        
    97      0.200680   3 C  py              140     -0.200686   4 C  py        
   180      0.138217   5 C  py              223     -0.138225   6 C  py        
   100      0.136994   3 C  py              143     -0.136996   4 C  py        
   352     -0.123240   9 N  py              395      0.123230  10 N  py        

 Vector   35  Occ=0.000000D+00  E=-1.866069D-02
              MO Center=  3.2D-06,  1.3D-09, -5.4D-01, r^2= 5.5D+00
   Bfn.  Coefficient  Atom+Function         Bfn.  Coefficient  Atom+Function  
  ----- ------------  ---------------      ----- ------------  ---------------
   352      0.228006   9 N  py              395      0.228007  10 N  py        
   355      0.208069   9 N  py              398      0.208070  10 N  py        
   358      0.153667   9 N  py              401      0.153665  10 N  py        
   266     -0.147441   7 C  py              309     -0.147452   8 C  py        
    94     -0.145601   3 C  py              137     -0.145606   4 C  py        

 Vector   36  Occ=0.000000D+00  E= 3.002216D-02
              MO Center= -6.5D-07, -4.5D-10, -4.3D-02, r^2= 5.9D+00
   Bfn.  Coefficient  Atom+Function         Bfn.  Coefficient  Atom+Function  
  ----- ------------  ---------------      ----- ------------  ---------------
    14      0.409749   1 C  py               57     -0.409751   2 C  py        
     8      0.210297   1 C  py               51     -0.210288   2 C  py        
    11      0.196523   1 C  py               54     -0.196516   2 C  py        
    32     -0.193518   1 C  dyz              75      0.193515   2 C  dyz       
   269     -0.193658   7 C  py              312      0.193651   8 C  py        

 Vector   37  Occ=0.000000D+00  E= 5.464593D-02
              MO Center= -2.4D-04,  6.9D-10, -1.5D-01, r^2= 2.2D+01
   Bfn.  Coefficient  Atom+Function         Bfn.  Coefficient  Atom+Function  
  ----- ------------  ---------------      ----- ------------  ---------------
   264      3.334128   7 C  s               307      3.333628   8 C  s         
    92      2.766138   3 C  s               135      2.765634   4 C  s         
     6     -1.690732   1 C  s                49     -1.690641   2 C  s         
   469      1.603779  15 H  s               478      1.603571  16 H  s         
   178      1.586517   5 C  s               221      1.586174   6 C  s         

 Vector   38  Occ=0.000000D+00  E= 6.379421D-02
              MO Center= -7.9D-05,  7.1D-09,  5.4D-01, r^2= 5.1D+00
   Bfn.  Coefficient  Atom+Function         Bfn.  Coefficient  Atom+Function  
  ----- ------------  ---------------      ----- ------------  ---------------
    29      0.255869   1 C  dxy              72     -0.255845   2 C  dxy       
    97     -0.221317   3 C  py              140     -0.221297   4 C  py        
    94     -0.207148   3 C  py              137     -0.207129   4 C  py        
     8      0.160946   1 C  py               51      0.160944   2 C  py        
    11      0.155061   1 C  py               54      0.155059   2 C  py        

 Vector   39  Occ=0.000000D+00  E= 6.512100D-02
              MO Center= -1.5D-04, -1.3D-08,  1.9D-01, r^2= 2.5D+01
   Bfn.  Coefficient  Atom+Function         Bfn.  Coefficient  Atom+Function  
  ----- ------------  ---------------      ----- ------------  ---------------
   178      3.311873   5 C  s               221      3.311193   6 C  s         
   264     -3.294760   7 C  s               307     -3.294826   8 C  s         
   350      1.799115   9 N  s               393      1.799043  10 N  s         
   263     -1.259488   7 C  s               306     -1.259442   8 C  s         
   349      1.176272   9 N  s               392      1.176311  10 N  s         

 Vector   40  Occ=0.000000D+00  E= 7.604470D-02
              MO Center=  9.9D-05,  8.0D-09,  1.0D+00, r^2= 2.2D+01
   Bfn.  Coefficient  Atom+Function         Bfn.  Coefficient  Atom+Function  
  ----- ------------  ---------------      ----- ------------  ---------------
   264      6.024168   7 C  s               307     -6.024289   8 C  s         
    92      4.382953   3 C  s               135     -4.382193   4 C  s         
   178      3.529045   5 C  s               221     -3.530202   6 C  s         
   350     -2.855258   9 N  s               393      2.855287  10 N  s         
   469      1.994015  15 H  s               478     -1.993989  16 H  s         

 Vector   41  Occ=0.000000D+00  E= 9.088379D-02
              MO Center=  4.9D-05,  6.7D-09, -1.3D+00, r^2= 2.5D+01
   Bfn.  Coefficient  Atom+Function         Bfn.  Coefficient  Atom+Function  
  ----- ------------  ---------------      ----- ------------  ---------------
   264     11.343545   7 C  s               307    -11.343808   8 C  s         
   350     -6.729956   9 N  s               393      6.730038  10 N  s         
   178     -6.173999   5 C  s               221      6.174260   6 C  s         
     6      3.788572   1 C  s                49     -3.787949   2 C  s         
   469      3.573862  15 H  s               478     -3.573607  16 H  s         

 Vector   42  Occ=0.000000D+00  E= 9.280142D-02
              MO Center= -6.8D-05, -1.0D-08,  5.4D-01, r^2= 2.0D+01
   Bfn.  Coefficient  Atom+Function         Bfn.  Coefficient  Atom+Function  
  ----- ------------  ---------------      ----- ------------  ---------------
    92      5.628301   3 C  s               135      5.628176   4 C  s         
   263     -4.742857   7 C  s               306     -4.743250   8 C  s         
   178     -3.904617   5 C  s               221     -3.904020   6 C  s         
   469      3.293481  15 H  s               478      3.293922  16 H  s         
    28     -2.800954   1 C  dxx              71     -2.800784   2 C  dxx       

 Vector   43  Occ=0.000000D+00  E= 1.052154D-01
              MO Center=  2.0D-05, -1.9D-09,  1.2D+00, r^2= 1.8D+01
   Bfn.  Coefficient  Atom+Function         Bfn.  Coefficient  Atom+Function  
  ----- ------------  ---------------      ----- ------------  ---------------
    92      9.906054   3 C  s               135      9.905702   4 C  s         
     6     -8.573178   1 C  s                49     -8.573003   2 C  s         
   178     -4.812279   5 C  s               221     -4.810480   6 C  s         
   451     -3.466776  13 H  s               460     -3.466650  14 H  s         
   350      2.208810   9 N  s               393      2.208691  10 N  s         

 Vector   44  Occ=0.000000D+00  E= 1.225987D-01
              MO Center=  1.4D-04,  2.8D-08,  1.2D+00, r^2= 2.4D+01
   Bfn.  Coefficient  Atom+Function         Bfn.  Coefficient  Atom+Function  
  ----- ------------  ---------------      ----- ------------  ---------------
   178     13.057771   5 C  s               221    -13.058488   6 C  s         
    92     -8.691942   3 C  s               135      8.693390   4 C  s         
   264      5.115336   7 C  s               307     -5.115267   8 C  s         
     6     -2.811716   1 C  s                49      2.811062   2 C  s         
   433      2.735395  11 H  s               442     -2.734915  12 H  s         

 Vector   45  Occ=0.000000D+00  E= 1.391476D-01
              MO Center=  3.8D-05, -6.2D-09, -1.9D-01, r^2= 8.5D+00
   Bfn.  Coefficient  Atom+Function         Bfn.  Coefficient  Atom+Function  
  ----- ------------  ---------------      ----- ------------  ---------------
   287      0.393188   7 C  dxy             330      0.393174   8 C  dxy       
   269     -0.244235   7 C  py              312      0.244235   8 C  py        
   100     -0.232378   3 C  py              143      0.232332   4 C  py        
   358      0.229497   9 N  py              401     -0.229499  10 N  py        
   183      0.212606   5 C  py              226     -0.212616   6 C  py        

 Vector   46  Occ=0.000000D+00  E= 1.429204D-01
              MO Center= -7.2D-05, -2.9D-08, -2.2D-02, r^2= 1.9D+01
   Bfn.  Coefficient  Atom+Function         Bfn.  Coefficient  Atom+Function  
  ----- ------------  ---------------      ----- ------------  ---------------
   451    -10.674220  13 H  s               460    -10.673660  14 H  s         
   177     10.204808   5 C  s               220     10.204650   6 C  s         
   263     -8.304928   7 C  s               306     -8.304870   8 C  s         
   350      5.995086   9 N  s               393      5.994417  10 N  s         
   433     -5.766018  11 H  s               442     -5.765682  12 H  s         

 Vector   47  Occ=0.000000D+00  E= 1.592923D-01
              MO Center= -4.9D-05, -8.3D-10, -1.7D+00, r^2= 1.6D+01
   Bfn.  Coefficient  Atom+Function         Bfn.  Coefficient  Atom+Function  
  ----- ------------  ---------------      ----- ------------  ---------------
   469     12.276038  15 H  s               478     12.276885  16 H  s         
   263    -10.737105   7 C  s               306    -10.737822   8 C  s         
   350     -9.597735   9 N  s               393     -9.597902  10 N  s         
   451     -5.175322  13 H  s               460     -5.175765  14 H  s         
   273      4.445992   7 C  pz              316      4.446576   8 C  pz        

 Vector   48  Occ=0.000000D+00  E= 1.652768D-01
              MO Center=  4.0D-05, -8.1D-08, -7.3D-02, r^2= 1.9D+01
   Bfn.  Coefficient  Atom+Function         Bfn.  Coefficient  Atom+Function  
  ----- ------------  ---------------      ----- ------------  ---------------
     6     25.644803   1 C  s                49    -25.645391   2 C  s         
   433     12.429543  11 H  s               442    -12.429422  12 H  s         
   469      9.931775  15 H  s               478     -9.930090  16 H  s         
   350     -8.504984   9 N  s               393      8.504009  10 N  s         
    92     -8.177051   3 C  s               135      8.177965   4 C  s         

 Vector   49  Occ=0.000000D+00  E= 1.770701D-01
              MO Center= -6.9D-04, -1.5D-09,  2.0D+00, r^2= 1.3D+01
   Bfn.  Coefficient  Atom+Function         Bfn.  Coefficient  Atom+Function  
  ----- ------------  ---------------      ----- ------------  ---------------
   118      2.681143   3 C  dyz             161      2.679927   4 C  dyz       
    29     -2.494891   1 C  dxy              72      2.492192   2 C  dxy       
    14      2.402193   1 C  py               57      2.403261   2 C  py        
   186     -1.966293   5 C  py              229     -1.965814   6 C  py        
   201      1.268424   5 C  dxy             244     -1.268299   6 C  dxy       

 Vector   50  Occ=0.000000D+00  E= 1.858079D-01
              MO Center=  6.1D-04, -3.9D-07,  8.6D-01, r^2= 1.3D+01
   Bfn.  Coefficient  Atom+Function         Bfn.  Coefficient  Atom+Function  
  ----- ------------  ---------------      ----- ------------  ---------------
    29      6.997518   1 C  dxy              72      6.998473   2 C  dxy       
    32     -4.216879   1 C  dyz              75      4.216851   2 C  dyz       
   100      3.752366   3 C  py              143     -3.752588   4 C  py        
   118     -3.079265   3 C  dyz             161      3.080363   4 C  dyz       
    14      2.856150   1 C  py               57     -2.855250   2 C  py        

 Vector   51  Occ=0.000000D+00  E= 1.900406D-01
              MO Center= -3.6D-04,  3.2D-07,  5.3D-01, r^2= 2.1D+01
   Bfn.  Coefficient  Atom+Function         Bfn.  Coefficient  Atom+Function  
  ----- ------------  ---------------      ----- ------------  ---------------
   350     13.741198   9 N  s               393    -13.744939  10 N  s         
   451    -10.876386  13 H  s               460     10.869023  14 H  s         
    92     -8.337987   3 C  s               135      8.331005   4 C  s         
   433     -7.222503  11 H  s               442      7.216129  12 H  s         
   273      6.815126   7 C  pz              316     -6.819176   8 C  pz        

 Vector   52  Occ=0.000000D+00  E= 1.908543D-01
              MO Center=  3.3D-04,  3.7D-08, -2.6D-01, r^2= 1.9D+01
   Bfn.  Coefficient  Atom+Function         Bfn.  Coefficient  Atom+Function  
  ----- ------------  ---------------      ----- ------------  ---------------
   263     12.748253   7 C  s               306     12.746836   8 C  s         
   469    -10.892868  15 H  s               478    -10.890631  16 H  s         
     6     10.303115   1 C  s                49     10.303231   2 C  s         
   451     -6.167737  13 H  s               460     -6.182570  14 H  s         
    92     -4.879879   3 C  s               135     -4.891073   4 C  s         

 Vector   53  Occ=0.000000D+00  E= 1.962218D-01
              MO Center= -5.7D-05, -2.0D-08, -1.7D+00, r^2= 1.4D+01
   Bfn.  Coefficient  Atom+Function         Bfn.  Coefficient  Atom+Function  
  ----- ------------  ---------------      ----- ------------  ---------------
   115      1.512410   3 C  dxy             158     -1.512369   4 C  dxy       
    32     -1.359985   1 C  dyz              75     -1.359891   2 C  dyz       
   118     -1.305263   3 C  dyz             161     -1.305222   4 C  dyz       
    14     -0.938602   1 C  py               57     -0.938500   2 C  py        
   201     -0.940555   5 C  dxy             244      0.940565   6 C  dxy       

 Vector   54  Occ=0.000000D+00  E= 2.075168D-01
              MO Center= -1.2D-05,  2.0D-08,  1.2D+00, r^2= 1.8D+01
   Bfn.  Coefficient  Atom+Function         Bfn.  Coefficient  Atom+Function  
  ----- ------------  ---------------      ----- ------------  ---------------
   451     10.647136  13 H  s               460     10.646711  14 H  s         
   433     -7.779794  11 H  s               442     -7.780839  12 H  s         
   469      7.264402  15 H  s               478      7.264600  16 H  s         
    28      5.538953   1 C  dxx              71      5.538668   2 C  dxx       
   273      5.184654   7 C  pz              316      5.184854   8 C  pz        

 Vector   55  Occ=0.000000D+00  E= 2.304691D-01
              MO Center=  4.3D-05,  1.2D-07, -9.7D-01, r^2= 2.0D+01
   Bfn.  Coefficient  Atom+Function         Bfn.  Coefficient  Atom+Function  
  ----- ------------  ---------------      ----- ------------  ---------------
   469     19.670406  15 H  s               478    -19.670978  16 H  s         
   264     14.295719   7 C  s               307    -14.296248   8 C  s         
   350     -9.730988   9 N  s               393      9.731298  10 N  s         
   263     -9.665411   7 C  s               306      9.666071   8 C  s         
   433     -6.793186  11 H  s               442      6.791530  12 H  s         

 Vector   56  Occ=0.000000D+00  E= 2.345508D-01
              MO Center= -9.4D-05,  1.5D-09, -3.7D-01, r^2= 1.6D+01
   Bfn.  Coefficient  Atom+Function         Bfn.  Coefficient  Atom+Function  
  ----- ------------  ---------------      ----- ------------  ---------------
   451      7.262654  13 H  s               460      7.263224  14 H  s         
    92     -7.190479   3 C  s               135     -7.189313   4 C  s         
    28      6.886475   1 C  dxx              71      6.886319   2 C  dxx       
   433     -5.901931  11 H  s               442     -5.902982  12 H  s         
   178      4.006654   5 C  s               221      4.006258   6 C  s         

 Vector   57  Occ=0.000000D+00  E= 2.349458D-01
              MO Center=  2.4D-04, -1.6D-07, -1.5D+00, r^2= 1.2D+01
   Bfn.  Coefficient  Atom+Function         Bfn.  Coefficient  Atom+Function  
  ----- ------------  ---------------      ----- ------------  ---------------
   272      2.735365   7 C  py              315     -2.735866   8 C  py        
   287      2.676045   7 C  dxy             330      2.675701   8 C  dxy       
    14      2.414541   1 C  py               57     -2.414776   2 C  py        
    32      2.083013   1 C  dyz              75     -2.082255   2 C  dyz       
   115     -1.871192   3 C  dxy             158     -1.870335   4 C  dxy       

 Vector   58  Occ=0.000000D+00  E= 2.359735D-01
              MO Center= -2.0D-04, -3.5D-10, -8.2D-01, r^2= 1.3D+01
   Bfn.  Coefficient  Atom+Function         Bfn.  Coefficient  Atom+Function  
  ----- ------------  ---------------      ----- ------------  ---------------
   115      1.214711   3 C  dxy             158     -1.216301   4 C  dxy       
   186      1.173089   5 C  py              229      1.171970   6 C  py        
    32     -1.086000   1 C  dyz              75     -1.087327   2 C  dyz       
   118     -1.037409   3 C  dyz             161     -1.037655   4 C  dyz       
   201     -1.003358   5 C  dxy             244      1.004021   6 C  dxy       

 Vector   59  Occ=0.000000D+00  E= 2.441269D-01
              MO Center= -8.7D-04, -3.5D-08, -3.6D-01, r^2= 2.1D+01
   Bfn.  Coefficient  Atom+Function         Bfn.  Coefficient  Atom+Function  
  ----- ------------  ---------------      ----- ------------  ---------------
   350     22.047043   9 N  s               393    -22.043336  10 N  s         
     6    -17.766688   1 C  s                49     17.757857   2 C  s         
   264    -10.215694   7 C  s               307     10.211730   8 C  s         
   178      9.521051   5 C  s               221     -9.520846   6 C  s         
   451      9.362612  13 H  s               460     -9.373130  14 H  s         

 Vector   60  Occ=0.000000D+00  E= 2.453016D-01
              MO Center=  6.9D-04,  3.1D-08,  6.0D-01, r^2= 1.7D+01
   Bfn.  Coefficient  Atom+Function         Bfn.  Coefficient  Atom+Function  
  ----- ------------  ---------------      ----- ------------  ---------------
    92      6.735294   3 C  s               135      6.737317   4 C  s         
   451     -6.555508  13 H  s               460     -6.541497  14 H  s         
     6     -5.546041   1 C  s                49     -5.571411   2 C  s         
   177      3.552397   5 C  s               220      3.550894   6 C  s         
   187      2.847065   5 C  pz              230      2.844531   6 C  pz        

 Vector   61  Occ=0.000000D+00  E= 2.457983D-01
              MO Center=  3.3D-05,  4.8D-08,  9.6D-01, r^2= 1.1D+01
   Bfn.  Coefficient  Atom+Function         Bfn.  Coefficient  Atom+Function  
  ----- ------------  ---------------      ----- ------------  ---------------
    32      3.420331   1 C  dyz              75     -3.420194   2 C  dyz       
   186     -2.198799   5 C  py              229      2.199056   6 C  py        
   118      1.851015   3 C  dyz             161     -1.851131   4 C  dyz       
   272      1.803713   7 C  py              315     -1.803731   8 C  py        
   100     -1.646708   3 C  py              143      1.646438   4 C  py        

 Vector   62  Occ=0.000000D+00  E= 2.548339D-01
              MO Center= -2.5D-05, -2.1D-08,  9.7D-01, r^2= 1.5D+01
   Bfn.  Coefficient  Atom+Function         Bfn.  Coefficient  Atom+Function  
  ----- ------------  ---------------      ----- ------------  ---------------
     6     11.118452   1 C  s                49     11.119410   2 C  s         
    92     -8.280210   3 C  s               135     -8.279869   4 C  s         
   178      6.694958   5 C  s               221      6.691094   6 C  s         
   433     -4.251368  11 H  s               442     -4.252635  12 H  s         
   350     -4.151156   9 N  s               393     -4.151959  10 N  s         

 Vector   63  Occ=0.000000D+00  E= 2.563869D-01
              MO Center=  1.3D-04,  1.3D-08,  6.0D-01, r^2= 1.8D+01
   Bfn.  Coefficient  Atom+Function         Bfn.  Coefficient  Atom+Function  
  ----- ------------  ---------------      ----- ------------  ---------------
   264     11.751859   7 C  s               307    -11.751199   8 C  s         
   178      9.788727   5 C  s               221     -9.790297   6 C  s         
     6     -7.183523   1 C  s                49      7.182163   2 C  s         
   263     -6.143857   7 C  s               306      6.143199   8 C  s         
    13     -5.917359   1 C  px               56     -5.917449   2 C  px        

 Vector   64  Occ=0.000000D+00  E= 2.632313D-01
              MO Center= -6.0D-05,  1.2D-08, -4.8D-01, r^2= 1.9D+01
   Bfn.  Coefficient  Atom+Function         Bfn.  Coefficient  Atom+Function  
  ----- ------------  ---------------      ----- ------------  ---------------
   433      9.299275  11 H  s               442      9.298978  12 H  s         
   263     -8.309177   7 C  s               306     -8.309226   8 C  s         
   469      7.172708  15 H  s               478      7.172654  16 H  s         
   350      5.008574   9 N  s               393      5.008421  10 N  s         
   200     -4.438629   5 C  dxx             243     -4.438790   6 C  dxx       

 Vector   65  Occ=0.000000D+00  E= 2.724685D-01
              MO Center= -2.2D-04, -7.0D-08,  5.7D-01, r^2= 1.9D+01
   Bfn.  Coefficient  Atom+Function         Bfn.  Coefficient  Atom+Function  
  ----- ------------  ---------------      ----- ------------  ---------------
    92     10.514267   3 C  s               135     10.511230   4 C  s         
   263    -10.122232   7 C  s               306    -10.124167   8 C  s         
   178     -6.033440   5 C  s               221     -6.029762   6 C  s         
    28     -5.109145   1 C  dxx              71     -5.107995   2 C  dxx       
   469      4.770782  15 H  s               478      4.772482  16 H  s         

 Vector   66  Occ=0.000000D+00  E= 2.759959D-01
              MO Center= -5.7D-05,  4.0D-08,  9.9D-01, r^2= 1.4D+01
   Bfn.  Coefficient  Atom+Function         Bfn.  Coefficient  Atom+Function  
  ----- ------------  ---------------      ----- ------------  ---------------
   100      3.967052   3 C  py              143      3.966885   4 C  py        
    32     -2.605401   1 C  dyz              75     -2.605462   2 C  dyz       
    14     -1.824320   1 C  py               57     -1.824022   2 C  py        
   186     -1.779790   5 C  py              229     -1.779189   6 C  py        
   115      1.669543   3 C  dxy             158     -1.669213   4 C  dxy       

 Vector   67  Occ=0.000000D+00  E= 2.800836D-01
              MO Center=  2.1D-04,  7.7D-08,  8.5D-01, r^2= 1.7D+01
   Bfn.  Coefficient  Atom+Function         Bfn.  Coefficient  Atom+Function  
  ----- ------------  ---------------      ----- ------------  ---------------
   178     14.826937   5 C  s               221    -14.828609   6 C  s         
    92    -11.622573   3 C  s               135     11.626342   4 C  s         
   263     -8.248568   7 C  s               306      8.245550   8 C  s         
   469      8.177076  15 H  s               478     -8.175528  16 H  s         
    30      7.779209   1 C  dxz              73      7.777756   2 C  dxz       

 Vector   68  Occ=0.000000D+00  E= 2.937753D-01
              MO Center=  3.4D-05,  6.3D-08, -2.6D-01, r^2= 1.9D+01
   Bfn.  Coefficient  Atom+Function         Bfn.  Coefficient  Atom+Function  
  ----- ------------  ---------------      ----- ------------  ---------------
   264      8.421004   7 C  s               307     -8.421018   8 C  s         
   178     -5.334310   5 C  s               221      5.334527   6 C  s         
     6     -3.610876   1 C  s                49      3.610984   2 C  s         
   114      3.350401   3 C  dxx             157     -3.350146   4 C  dxx       
   289     -2.957640   7 C  dyy             332      2.957701   8 C  dyy       

 Vector   69  Occ=0.000000D+00  E= 2.987134D-01
              MO Center= -1.9D-06,  1.7D-08, -1.8D-02, r^2= 1.2D+01
   Bfn.  Coefficient  Atom+Function         Bfn.  Coefficient  Atom+Function  
  ----- ------------  ---------------      ----- ------------  ---------------
   350     11.384595   9 N  s               393     11.384325  10 N  s         
   451     -7.583505  13 H  s               460     -7.583223  14 H  s         
   177      6.666853   5 C  s               220      6.666747   6 C  s         
   116      6.159744   3 C  dxz             159     -6.160249   4 C  dxz       
    28     -6.006369   1 C  dxx              71     -6.006658   2 C  dxx       

 Vector   70  Occ=0.000000D+00  E= 3.092169D-01
              MO Center=  3.1D-05,  1.3D-07, -2.2D-01, r^2= 1.3D+01
   Bfn.  Coefficient  Atom+Function         Bfn.  Coefficient  Atom+Function  
  ----- ------------  ---------------      ----- ------------  ---------------
    29      5.508825   1 C  dxy              72      5.508927   2 C  dxy       
   186     -3.385264   5 C  py              229      3.385422   6 C  py        
   100      3.043568   3 C  py              143     -3.043882   4 C  py        
   201     -2.503165   5 C  dxy             244     -2.503044   6 C  dxy       
   290      1.816105   7 C  dyz             333     -1.816020   8 C  dyz       

 Vector   71  Occ=0.000000D+00  E= 3.171674D-01
              MO Center=  5.6D-05, -2.0D-07, -3.8D-01, r^2= 1.7D+01
   Bfn.  Coefficient  Atom+Function         Bfn.  Coefficient  Atom+Function  
  ----- ------------  ---------------      ----- ------------  ---------------
   350     14.613939   9 N  s               393    -14.615018  10 N  s         
   469    -14.179935  15 H  s               478     14.182799  16 H  s         
   288     11.210683   7 C  dxz             331     11.210666   8 C  dxz       
     6     -8.982108   1 C  s                49      8.984017   2 C  s         
   271     -5.793339   7 C  px              314     -5.794496   8 C  px        

 Vector   72  Occ=0.000000D+00  E= 3.193708D-01
              MO Center= -5.9D-05, -8.5D-09,  7.5D-01, r^2= 8.3D+00
   Bfn.  Coefficient  Atom+Function         Bfn.  Coefficient  Atom+Function  
  ----- ------------  ---------------      ----- ------------  ---------------
    14      2.527848   1 C  py               57      2.527916   2 C  py        
   118      2.084333   3 C  dyz             161      2.084007   4 C  dyz       
    32      1.933890   1 C  dyz              75      1.933399   2 C  dyz       
    29     -1.853905   1 C  dxy              72      1.853350   2 C  dxy       
   287      1.595310   7 C  dxy             330     -1.595199   8 C  dxy       

 Vector   73  Occ=0.000000D+00  E= 3.199437D-01
              MO Center= -4.3D-05,  1.1D-07,  7.2D-01, r^2= 1.8D+01
   Bfn.  Coefficient  Atom+Function         Bfn.  Coefficient  Atom+Function  
  ----- ------------  ---------------      ----- ------------  ---------------
   263     12.913624   7 C  s               306     12.914351   8 C  s         
   469     -9.803955  15 H  s               478     -9.803417  16 H  s         
   451      6.931521  13 H  s               460      6.929690  14 H  s         
   177     -5.684531   5 C  s               220     -5.684381   6 C  s         
    28      5.515127   1 C  dxx              71      5.514724   2 C  dxx       

 Vector   74  Occ=0.000000D+00  E= 3.215786D-01
              MO Center= -9.2D-05, -1.6D-08,  1.8D-01, r^2= 1.6D+01
   Bfn.  Coefficient  Atom+Function         Bfn.  Coefficient  Atom+Function  
  ----- ------------  ---------------      ----- ------------  ---------------
   263    -17.847466   7 C  s               306    -17.846437   8 C  s         
   451    -17.780074  13 H  s               460    -17.779050  14 H  s         
   177     17.447576   5 C  s               220     17.447651   6 C  s         
   433    -13.556136  11 H  s               442    -13.555334  12 H  s         
   469     12.812146  15 H  s               478     12.809107  16 H  s         

 Vector   75  Occ=0.000000D+00  E= 3.324952D-01
              MO Center=  6.7D-05, -2.1D-07,  6.3D-01, r^2= 1.8D+01
   Bfn.  Coefficient  Atom+Function         Bfn.  Coefficient  Atom+Function  
  ----- ------------  ---------------      ----- ------------  ---------------
     6     13.169430   1 C  s                49    -13.169092   2 C  s         
   451    -12.473219  13 H  s               460     12.473948  14 H  s         
   433      8.770213  11 H  s               442     -8.769494  12 H  s         
    92     -7.858526   3 C  s               135      7.859152   4 C  s         
    13      7.067907   1 C  px               56      7.067922   2 C  px        

 Vector   76  Occ=0.000000D+00  E= 3.374233D-01
              MO Center=  2.7D-05,  7.9D-08,  6.9D-02, r^2= 1.6D+01
   Bfn.  Coefficient  Atom+Function         Bfn.  Coefficient  Atom+Function  
  ----- ------------  ---------------      ----- ------------  ---------------
     6     27.989916   1 C  s                49    -27.989943   2 C  s         
   433     17.637072  11 H  s               442    -17.637210  12 H  s         
    92    -11.675008   3 C  s               135     11.675480   4 C  s         
   178     11.655018   5 C  s               221    -11.655664   6 C  s         
   263     -9.055545   7 C  s               306      9.055327   8 C  s         

 Vector   77  Occ=0.000000D+00  E= 3.379020D-01
              MO Center=  7.6D-05, -7.1D-09,  2.4D-01, r^2= 1.9D+01
   Bfn.  Coefficient  Atom+Function         Bfn.  Coefficient  Atom+Function  
  ----- ------------  ---------------      ----- ------------  ---------------
    32      7.841016   1 C  dyz              75     -7.841157   2 C  dyz       
   100     -5.434047   3 C  py              143      5.434358   4 C  py        
   290      4.825133   7 C  dyz             333     -4.825161   8 C  dyz       
    14      3.976213   1 C  py               57     -3.976379   2 C  py        
   186      3.947535   5 C  py              229     -3.947692   6 C  py        

 Vector   78  Occ=0.000000D+00  E= 3.501709D-01
              MO Center= -4.0D-06, -2.1D-07, -1.8D+00, r^2= 7.9D+00
   Bfn.  Coefficient  Atom+Function         Bfn.  Coefficient  Atom+Function  
  ----- ------------  ---------------      ----- ------------  ---------------
   287      2.012532   7 C  dxy             330     -2.012446   8 C  dxy       
    32     -1.545190   1 C  dyz              75     -1.545393   2 C  dyz       
   272     -1.302958   7 C  py              315     -1.302975   8 C  py        
   100      0.940924   3 C  py              143      0.941089   4 C  py        
   376     -0.809255   9 N  dyz             419     -0.809223  10 N  dyz       

 Vector   79  Occ=0.000000D+00  E= 3.532430D-01
              MO Center= -4.1D-05,  1.9D-07, -5.2D-01, r^2= 1.9D+01
   Bfn.  Coefficient  Atom+Function         Bfn.  Coefficient  Atom+Function  
  ----- ------------  ---------------      ----- ------------  ---------------
   469     20.934227  15 H  s               478     20.934178  16 H  s         
   451     14.125770  13 H  s               460     14.124534  14 H  s         
   263    -11.769707   7 C  s               306    -11.769823   8 C  s         
   273     11.214590   7 C  pz              316     11.215299   8 C  pz        
   177    -10.554781   5 C  s               220    -10.554559   6 C  s         

 Vector   80  Occ=0.000000D+00  E= 3.571105D-01
              MO Center= -3.2D-04,  5.4D-09,  4.2D-01, r^2= 1.4D+01
   Bfn.  Coefficient  Atom+Function         Bfn.  Coefficient  Atom+Function  
  ----- ------------  ---------------      ----- ------------  ---------------
   263     16.535581   7 C  s               306     16.539604   8 C  s         
   469    -12.688729  15 H  s               478    -12.688649  16 H  s         
     6     10.388477   1 C  s                49     10.384755   2 C  s         
   451     -7.480902  13 H  s               460     -7.473986  14 H  s         
    30     -6.049097   1 C  dxz              73      6.049264   2 C  dxz       

 Vector   81  Occ=0.000000D+00  E= 3.611814D-01
              MO Center=  1.6D-04, -1.4D-08,  6.1D-01, r^2= 1.5D+01
   Bfn.  Coefficient  Atom+Function         Bfn.  Coefficient  Atom+Function  
  ----- ------------  ---------------      ----- ------------  ---------------
   273     13.836679   7 C  pz              316    -13.845775   8 C  pz        
   288     11.834807   7 C  dxz             331     11.824669   8 C  dxz       
   116     -9.347660   3 C  dxz             159     -9.352865   4 C  dxz       
   451     -8.821442  13 H  s               460      8.849834  14 H  s         
   185     -7.749135   5 C  px              228     -7.746469   6 C  px        

 Vector   82  Occ=0.000000D+00  E= 3.613367D-01
              MO Center=  4.8D-05, -6.4D-08, -1.5D-01, r^2= 1.3D+01
   Bfn.  Coefficient  Atom+Function         Bfn.  Coefficient  Atom+Function  
  ----- ------------  ---------------      ----- ------------  ---------------
   451     11.715082  13 H  s               460     11.699522  14 H  s         
   469    -10.674767  15 H  s               478    -10.675935  16 H  s         
   349      7.824263   9 N  s               392      7.823486  10 N  s         
   200      7.387491   5 C  dxx             243      7.387632   6 C  dxx       
   101     -6.903056   3 C  pz              144     -6.898841   4 C  pz        

 Vector   83  Occ=0.000000D+00  E= 3.701123D-01
              MO Center= -8.7D-05, -2.8D-08,  6.0D-01, r^2= 1.3D+01
   Bfn.  Coefficient  Atom+Function         Bfn.  Coefficient  Atom+Function  
  ----- ------------  ---------------      ----- ------------  ---------------
   115      3.359736   3 C  dxy             158     -3.359502   4 C  dxy       
    32     -2.537753   1 C  dyz              75     -2.536940   2 C  dyz       
   100      2.150603   3 C  py              143      2.150269   4 C  py        
   118     -2.079115   3 C  dyz             161     -2.078470   4 C  dyz       
   204      1.589326   5 C  dyz             247      1.589586   6 C  dyz       

 Vector   84  Occ=0.000000D+00  E= 3.769094D-01
              MO Center=  9.4D-05,  1.0D-07, -2.8D-01, r^2= 1.3D+01
   Bfn.  Coefficient  Atom+Function         Bfn.  Coefficient  Atom+Function  
  ----- ------------  ---------------      ----- ------------  ---------------
     6     15.369946   1 C  s                49    -15.372037   2 C  s         
   451    -12.758838  13 H  s               460     12.759526  14 H  s         
   350     -9.079493   9 N  s               393      9.080290  10 N  s         
   469      8.139766  15 H  s               478     -8.137313  16 H  s         
   273      5.736451   7 C  pz              316     -5.735459   8 C  pz        

 Vector   85  Occ=0.000000D+00  E= 3.825194D-01
              MO Center=  7.9D-06,  1.4D-07,  5.8D-01, r^2= 1.4D+01
   Bfn.  Coefficient  Atom+Function         Bfn.  Coefficient  Atom+Function  
  ----- ------------  ---------------      ----- ------------  ---------------
    32      9.879353   1 C  dyz              75     -9.879413   2 C  dyz       
    29     -8.889754   1 C  dxy              72     -8.889791   2 C  dxy       
   118      5.304812   3 C  dyz             161     -5.305139   4 C  dyz       
   290      5.177113   7 C  dyz             333     -5.177209   8 C  dyz       
   115     -4.250777   3 C  dxy             158     -4.250549   4 C  dxy       

 Vector   86  Occ=0.000000D+00  E= 3.890769D-01
              MO Center= -6.1D-05, -3.8D-07, -2.1D-01, r^2= 1.5D+01
   Bfn.  Coefficient  Atom+Function         Bfn.  Coefficient  Atom+Function  
  ----- ------------  ---------------      ----- ------------  ---------------
   273     13.661112   7 C  pz              316    -13.658239   8 C  pz        
   433    -13.716705  11 H  s               442     13.710753  12 H  s         
   469     12.834875  15 H  s               478    -12.833929  16 H  s         
   349    -11.135465   9 N  s               392     11.131707  10 N  s         
    99     -7.337775   3 C  px              142     -7.337467   4 C  px        

 Vector   87  Occ=0.000000D+00  E= 3.919955D-01
              MO Center=  8.3D-05, -5.5D-08, -5.5D-01, r^2= 1.4D+01
   Bfn.  Coefficient  Atom+Function         Bfn.  Coefficient  Atom+Function  
  ----- ------------  ---------------      ----- ------------  ---------------
    30     10.079060   1 C  dxz              73    -10.082450   2 C  dxz       
   263     -9.925347   7 C  s               306     -9.922429   8 C  s         
   433      9.284628  11 H  s               442      9.292129  12 H  s         
   288      8.432977   7 C  dxz             331     -8.431352   8 C  dxz       
    92      7.655828   3 C  s               135      7.658186   4 C  s         

 Vector   88  Occ=0.000000D+00  E= 4.035782D-01
              MO Center= -5.4D-06, -6.3D-08,  7.3D-01, r^2= 1.6D+01
   Bfn.  Coefficient  Atom+Function         Bfn.  Coefficient  Atom+Function  
  ----- ------------  ---------------      ----- ------------  ---------------
   433     10.386633  11 H  s               442     10.387349  12 H  s         
   469    -10.277897  15 H  s               478    -10.274605  16 H  s         
   202      7.492411   5 C  dxz             245     -7.492972   6 C  dxz       
[...]
  Root   1 singlet a              0.134579845 a.u.                3.6621 eV 
  ----------------------------------------------------------------------------
     Transition Moments    X -0.00000   Y  0.20961   Z  0.00000
     Transition Moments   XX -0.00000  XY  0.00008  XZ -0.00000
     Transition Moments   YY  0.00000  YZ -0.70755  ZZ -0.00000
     Dipole Oscillator Strength                    0.0039418512
     Electric Quadrupole                           0.0000000065
     Magnetic Dipole                               0.0000000135
     Total Oscillator Strength                     0.0039418712

     Occ.   31  a   ---  Virt.   45  a       -0.06655
     Occ.   33  a   ---  Virt.   35  a        0.98121
     Occ.   33  a   ---  Virt.   38  a       -0.15724
  ----------------------------------------------------------------------------
  Root   2 singlet a              0.170625071 a.u.                4.6429 eV 
  ----------------------------------------------------------------------------
     Transition Moments    X  0.00017   Y -0.00000   Z -0.87823
     Transition Moments   XX  0.03704  XY  0.00000  XZ  0.00025
     Transition Moments   YY  0.01707  YZ  0.00000  ZZ  1.42419
     Dipole Oscillator Strength                    0.0877348131
     Electric Quadrupole                           0.0000000172
     Magnetic Dipole                               0.0000000000
     Total Oscillator Strength                     0.0877348303

     Occ.   27  a   ---  Virt.   38  a        0.06385
     Occ.   30  a   ---  Virt.   36  a       -0.09901
     Occ.   30  a   ---  Virt.   45  a       -0.06715
     Occ.   32  a   ---  Virt.   35  a       -0.82157
     Occ.   32  a   ---  Virt.   38  a       -0.06120
     Occ.   34  a   ---  Virt.   36  a        0.53559
  ----------------------------------------------------------------------------
  Root   3 singlet a              0.174832563 a.u.                4.7574 eV 
  ----------------------------------------------------------------------------
     Transition Moments    X -0.59718   Y -0.00000   Z -0.00040
     Transition Moments   XX -0.00011  XY -0.00000  XZ -0.24736
     Transition Moments   YY -0.00001  YZ  0.00000  ZZ  0.00059
     Dipole Oscillator Strength                    0.0415661699
     Electric Quadrupole                           0.0000000017
     Magnetic Dipole                               0.0000000088
     Total Oscillator Strength                     0.0415661804

     Occ.   30  a   ---  Virt.   35  a        0.08706
     Occ.   32  a   ---  Virt.   36  a        0.23062
     Occ.   34  a   ---  Virt.   35  a        0.94965
     Occ.   34  a   ---  Virt.   38  a       -0.12912
  ----------------------------------------------------------------------------
  Root   4 singlet a              0.181066571 a.u.                4.9271 eV 
  ----------------------------------------------------------------------------
     Transition Moments    X  0.00000   Y -0.00001   Z -0.00000
     Transition Moments   XX  0.00000  XY  0.46147  XZ -0.00000
     Transition Moments   YY -0.00000  YZ  0.00004  ZZ  0.00000
     Dipole Oscillator Strength                    0.0000000000
     Electric Quadrupole                           0.0000000067
     Magnetic Dipole                               0.0000002088
     Total Oscillator Strength                     0.0000002156

     Occ.   31  a   ---  Virt.   35  a        0.23519
     Occ.   33  a   ---  Virt.   36  a       -0.95016
     Occ.   33  a   ---  Virt.   45  a       -0.17544
     Occ.   33  a   ---  Virt.   57  a        0.06567
  ----------------------------------------------------------------------------
  Root   5 singlet a              0.199824401 a.u.                5.4375 eV 
  ----------------------------------------------------------------------------
     Transition Moments    X  0.00000   Y -0.00000   Z -0.00000
     Transition Moments   XX  0.00000  XY  1.19060  XZ -0.00000
     Transition Moments   YY -0.00000  YZ  0.00003  ZZ  0.00000
     Dipole Oscillator Strength                    0.0000000000
     Electric Quadrupole                           0.0000000602
     Magnetic Dipole                               0.0000018331
     Total Oscillator Strength                     0.0000018933

     Occ.   31  a   ---  Virt.   35  a        0.94258
     Occ.   31  a   ---  Virt.   38  a       -0.16735
     Occ.   33  a   ---  Virt.   36  a        0.25105
     Occ.   33  a   ---  Virt.   45  a       -0.08619
  ----------------------------------------------------------------------------
  Root   6 singlet a              0.225464402 a.u.                6.1352 eV 
  ----------------------------------------------------------------------------
     Transition Moments    X  0.00009   Y -0.00000   Z -2.06308
     Transition Moments   XX -0.49491  XY -0.00000  XZ -0.00020
     Transition Moments   YY -0.00149  YZ  0.00000  ZZ  1.03299
     Dipole Oscillator Strength                    0.6397603047
     Electric Quadrupole                           0.0000000371
     Magnetic Dipole                               0.0000000000
     Total Oscillator Strength                     0.6397603418

     Occ.   27  a   ---  Virt.   35  a       -0.17163
     Occ.   30  a   ---  Virt.   36  a       -0.23523
     Occ.   32  a   ---  Virt.   35  a       -0.40521
     Occ.   32  a   ---  Virt.   38  a        0.55134
     Occ.   34  a   ---  Virt.   36  a       -0.62662
     Occ.   34  a   ---  Virt.   45  a        0.12984
     Occ.   34  a   ---  Virt.   50  a       -0.05061
  ----------------------------------------------------------------------------
  Root   7 singlet a              0.228452460 a.u.                6.2165 eV 
  ----------------------------------------------------------------------------
     Transition Moments    X -0.00000   Y  0.18639   Z -0.00000
     Transition Moments   XX -0.00000  XY  0.00004  XZ  0.00000
     Transition Moments   YY  0.00000  YZ -0.17910  ZZ  0.00000
     Dipole Oscillator Strength                    0.0052910427
     Electric Quadrupole                           0.0000000020
     Magnetic Dipole                               0.0000000324
     Total Oscillator Strength                     0.0052910771

     Occ.   28  a   ---  Virt.   35  a        0.16788
     Occ.   28  a   ---  Virt.   38  a        0.07632
     Occ.   31  a   ---  Virt.   36  a        0.14240
     Occ.   33  a   ---  Virt.   35  a       -0.14556
     Occ.   33  a   ---  Virt.   38  a       -0.95102
  ----------------------------------------------------------------------------
  Root   8 singlet a              0.238709292 a.u.                6.4956 eV 
  ----------------------------------------------------------------------------
     Transition Moments    X -0.39129   Y -0.00000   Z -0.00015
     Transition Moments   XX  0.00002  XY  0.00000  XZ  1.10717
     Transition Moments   YY  0.00000  YZ  0.00000  ZZ  0.00007
     Dipole Oscillator Strength                    0.0243657062
     Electric Quadrupole                           0.0000000888
     Magnetic Dipole                               0.0000006410
     Total Oscillator Strength                     0.0243664360

     Occ.   30  a   ---  Virt.   35  a        0.26241
     Occ.   30  a   ---  Virt.   38  a       -0.05306
     Occ.   32  a   ---  Virt.   36  a       -0.71813
     Occ.   34  a   ---  Virt.   35  a        0.06704
     Occ.   34  a   ---  Virt.   38  a       -0.61935

              Target root =      1
          Target symmetry = none
      Ground state energy =   -417.718879427002
        Excitation energy =      0.134579844743
     Excited state energy =   -417.584299582258

  stored tddft:energy   -417.58429958225804     

    8 smallest eigenvalue differences (eV) 
--------------------------------------------------------
  No. Spin  Occ  Vir  Irrep   E(Occ)    E(Vir)   E(Diff)
--------------------------------------------------------
    1    1   34   35 a        -0.336    -0.019     8.626
    2    1   33   35 a        -0.337    -0.019     8.665
    3    1   32   35 a        -0.349    -0.019     8.988
    4    1   34   36 a        -0.336     0.030     9.951
    5    1   33   36 a        -0.337     0.030     9.990
    6    1   32   36 a        -0.349     0.030    10.313
    7    1   31   35 a        -0.402    -0.019    10.418
    8    1   34   37 a        -0.336     0.055    10.621
--------------------------------------------------------

  Entering Davidson iterations
  Restricted triplet excited states

  Iter   NTrls   NConv    DeltaV     DeltaE      Time   
  ----  ------  ------  ---------  ---------  --------- 
    1      8       0     0.62E-01   0.10+100      305.3
    2     16       0     0.26E-01   0.16E-01      307.7
    3     24       0     0.83E-01   0.81E-02      307.8
    4     32       0     0.57E-01   0.38E-01      308.0
    5     40       0     0.71E-01   0.28E-01      308.4
    6     48       0     0.26E-01   0.44E-02      308.8
    7     56       5     0.79E-02   0.50E-03      309.7
    8     59       6     0.15E-02   0.32E-04      243.3
    9     61       7     0.32E-03   0.11E-05      228.7
   10     62       8     0.78E-04   0.51E-07      214.8
  ----  ------  ------  ---------  ---------  --------- 
  Convergence criterion met

  Ground state a        -417.718879427002 a.u.

  ----------------------------------------------------------------------------
  Root   1 triplet a              0.111105864 a.u.                3.0233 eV 
  ----------------------------------------------------------------------------
     Transition Moments                    Spin forbidden
     Oscillator Strength                   Spin forbidden

     Occ.   31  a   ---  Virt.   45  a        0.11194
     Occ.   31  a   ---  Virt.   61  a       -0.05568
     Occ.   33  a   ---  Virt.   35  a       -0.95587
     Occ.   33  a   ---  Virt.   38  a        0.24140
  ----------------------------------------------------------------------------
  Root   2 triplet a              0.117507589 a.u.                3.1975 eV 
  ----------------------------------------------------------------------------
     Transition Moments                    Spin forbidden
     Oscillator Strength                   Spin forbidden

     Occ.   27  a   ---  Virt.   45  a       -0.11781
     Occ.   30  a   ---  Virt.   35  a        0.11356
     Occ.   30  a   ---  Virt.   38  a       -0.15827
     Occ.   32  a   ---  Virt.   36  a       -0.18817
     Occ.   34  a   ---  Virt.   35  a       -0.92163
     Occ.   34  a   ---  Virt.   38  a       -0.22306
  ----------------------------------------------------------------------------
  Root   3 triplet a              0.133994961 a.u.                3.6462 eV 
  ----------------------------------------------------------------------------
     Transition Moments                    Spin forbidden
     Oscillator Strength                   Spin forbidden

     Occ.   27  a   ---  Virt.   35  a        0.12394
     Occ.   27  a   ---  Virt.   38  a       -0.13243
     Occ.   32  a   ---  Virt.   35  a        0.97579
     Occ.   32  a   ---  Virt.   38  a       -0.05229
     Occ.   34  a   ---  Virt.   36  a        0.07196
  ----------------------------------------------------------------------------
  Root   4 triplet a              0.164229014 a.u.                4.4689 eV 
  ----------------------------------------------------------------------------
     Transition Moments                    Spin forbidden
     Oscillator Strength                   Spin forbidden

     Occ.   31  a   ---  Virt.   35  a       -0.83737
     Occ.   31  a   ---  Virt.   38  a        0.22987
     Occ.   33  a   ---  Virt.   36  a        0.40655
     Occ.   33  a   ---  Virt.   45  a        0.24592
     Occ.   33  a   ---  Virt.   61  a       -0.07159
  ----------------------------------------------------------------------------
  Root   5 triplet a              0.170120169 a.u.                4.6292 eV 
  ----------------------------------------------------------------------------
     Transition Moments                    Spin forbidden
     Oscillator Strength                   Spin forbidden

     Occ.   23  a   ---  Virt.   45  a        0.05419
     Occ.   27  a   ---  Virt.   36  a       -0.06980
     Occ.   27  a   ---  Virt.   45  a       -0.11179
     Occ.   30  a   ---  Virt.   35  a        0.20466
     Occ.   32  a   ---  Virt.   36  a       -0.92265
     Occ.   32  a   ---  Virt.   57  a        0.06235
     Occ.   32  a   ---  Virt.   61  a       -0.05478
     Occ.   34  a   ---  Virt.   35  a        0.19853
     Occ.   34  a   ---  Virt.   38  a        0.16766
  ----------------------------------------------------------------------------
  Root   6 triplet a              0.171183192 a.u.                4.6581 eV 
  ----------------------------------------------------------------------------
     Transition Moments                    Spin forbidden
     Oscillator Strength                   Spin forbidden

     Occ.   27  a   ---  Virt.   35  a       -0.12239
     Occ.   30  a   ---  Virt.   45  a       -0.09803
     Occ.   32  a   ---  Virt.   35  a       -0.05247
     Occ.   32  a   ---  Virt.   38  a        0.12858
     Occ.   34  a   ---  Virt.   36  a        0.95406
     Occ.   34  a   ---  Virt.   45  a       -0.18464
     Occ.   34  a   ---  Virt.   61  a        0.05569
  ----------------------------------------------------------------------------
  Root   7 triplet a              0.174188441 a.u.                4.7399 eV 
  ----------------------------------------------------------------------------
     Transition Moments                    Spin forbidden
     Oscillator Strength                   Spin forbidden

     Occ.   23  a   ---  Virt.   45  a        0.08058
     Occ.   27  a   ---  Virt.   36  a       -0.07041
     Occ.   27  a   ---  Virt.   57  a       -0.05122
     Occ.   27  a   ---  Virt.   70  a       -0.05121
     Occ.   30  a   ---  Virt.   35  a        0.60321
     Occ.   30  a   ---  Virt.   38  a       -0.06628
     Occ.   32  a   ---  Virt.   36  a        0.24149
     Occ.   32  a   ---  Virt.   45  a       -0.08687
     Occ.   34  a   ---  Virt.   35  a       -0.14660
     Occ.   34  a   ---  Virt.   38  a        0.71296
     Occ.   34  a   ---  Virt.   58  a        0.05653
  ----------------------------------------------------------------------------
  Root   8 triplet a              0.180527052 a.u.                4.9124 eV 
  ----------------------------------------------------------------------------
     Transition Moments                    Spin forbidden
     Oscillator Strength                   Spin forbidden

     Occ.   31  a   ---  Virt.   35  a       -0.40234
     Occ.   31  a   ---  Virt.   38  a        0.13871
     Occ.   33  a   ---  Virt.   36  a       -0.89179
     Occ.   33  a   ---  Virt.   45  a       -0.05598
     Occ.   33  a   ---  Virt.   57  a        0.07982
     Occ.   33  a   ---  Virt.   61  a       -0.07013

              Target root =      1
          Target symmetry = none
      Ground state energy =   -417.718879427002
        Excitation energy =      0.111105864157
     Excited state energy =   -417.607773562845

  stored tddft:energy   -417.60777356284490     

 Task  times  cpu:     6343.4s     wall:     7524.4s


                                NWChem Input Module
                                -------------------


 Summary of allocated global arrays
-----------------------------------
  No active global arrays


MA_summarize_allocated_blocks: starting scan ...
heap block 'gridpts', handle 127, address 0x1274a8c0:
	type of elements:		double precision
	number of elements:		5242762162
	address of client space:	0x1274a940
	index for client space:		10547327
	total number of bytes:		41942097432
MA_summarize_allocated_blocks: scan completed: 1 heap block, 0 stack blocks
MA usage statistics:

	allocation statistics:
					      heap	     stack
					      ----	     -----
	current number of blocks	         1	         0
	maximum number of blocks	        18	        53
	current total bytes		41942097432	         0
	maximum total bytes		41943986032	  39604888
	maximum total K-bytes		  41943987	     39605
	maximum total M-bytes		     41944	        40


                                     CITATION
                                     --------
                Please cite the following reference when publishing
                           results obtained with NWChem:

          E. Apra, E. J. Bylaska, W. A. de Jong, N. Govind, K. Kowalski,
       T. P. Straatsma, M. Valiev, H. J. J. van Dam, Y. Alexeev, J. Anchell,
       V. Anisimov, F. W. Aquino, R. Atta-Fynn, J. Autschbach, N. P. Bauman,
     J. C. Becca, D. E. Bernholdt, K. Bhaskaran-Nair, S. Bogatko, P. Borowski,
         J. Boschen, J. Brabec, A. Bruner, E. Cauet, Y. Chen, G. N. Chuev,
      C. J. Cramer, J. Daily, M. J. O. Deegan, T. H. Dunning Jr., M. Dupuis,
   K. G. Dyall, G. I. Fann, S. A. Fischer, A. Fonari, H. Fruchtl, L. Gagliardi,
      J. Garza, N. Gawande, S. Ghosh, K. Glaesemann, A. W. Gotz, J. Hammond,
       V. Helms, E. D. Hermes, K. Hirao, S. Hirata, M. Jacquelin, L. Jensen,
   B. G. Johnson, H. Jonsson, R. A. Kendall, M. Klemm, R. Kobayashi, V. Konkov,
      S. Krishnamoorthy, M. Krishnan, Z. Lin, R. D. Lins, R. J. Littlefield,
      A. J. Logsdail, K. Lopata, W. Ma, A. V. Marenich, J. Martin del Campo,
   D. Mejia-Rodriguez, J. E. Moore, J. M. Mullin, T. Nakajima, D. R. Nascimento,
    J. A. Nichols, P. J. Nichols, J. Nieplocha, A. Otero-de-la-Roza, B. Palmer,
    A. Panyala, T. Pirojsirikul, B. Peng, R. Peverati, J. Pittner, L. Pollack,
   R. M. Richard, P. Sadayappan, G. C. Schatz, W. A. Shelton, D. W. Silverstein,
   D. M. A. Smith, T. A. Soares, D. Song, M. Swart, H. L. Taylor, G. S. Thomas,
            V. Tipparaju, D. G. Truhlar, K. Tsemekhman, T. Van Voorhis,
      A. Vazquez-Mayagoitia, P. Verma, O. Villa, A. Vishnu, K. D. Vogiatzis,
        D. Wang, J. H. Weare, M. J. Williamson, T. L. Windus, K. Wolinski,
        A. T. Wong, Q. Wu, C. Yang, Q. Yu, M. Zacharias, Z. Zhang, Y. Zhao,
                                and R. J. Harrison
                        "NWChem: Past, present, and future
                         J. Chem. Phys. 152, 184102 (2020)
                               doi:10.1063/5.0004997

                                      AUTHORS
                                      -------
  E. Apra, E. J. Bylaska, N. Govind, K. Kowalski, M. Valiev, D. Mejia-Rodriguez,
       A. Kunitsa, N. P. Bauman, A. Panyala, W. A. de Jong, T. P. Straatsma,
   H. J. J. van Dam, D. Wang, T. L. Windus, J. Hammond, J. Autschbach, A. Woods,
    K. Bhaskaran-Nair, J. Brabec, K. Lopata, S. A. Fischer, S. Krishnamoorthy,
     M. Jacquelin, W. Ma, M. Klemm, O. Villa, Y. Chen, V. Anisimov, F. Aquino,
     S. Hirata, M. T. Hackler, E. Hermes, L. Jensen, J. E. Moore, J. C. Becca,
      V. Konjkov, T. Risthaus, M. Malagoli, A. Marenich, A. Otero-de-la-Roza,
        J. Mullin, P. Nichols, R. Peverati, J. Pittner, Y. Zhao, P.-D. Fan,
        A. Fonari, M. J. Williamson, R. J. Harrison, J. R. Rehr, M. Dupuis,
     D. Silverstein, D. M. A. Smith, J. Nieplocha, V. Tipparaju, M. Krishnan,
     B. E. Van Kuiken, A. Vazquez-Mayagoitia, M. Swart, Q. Wu, T. Van Voorhis,
     A. A. Auer, M. Nooijen, L. D. Crosby, E. Brown, G. Cisneros, G. I. Fann,
   H. Fruchtl, J. Garza, K. Hirao, R. A. Kendall, J. A. Nichols, K. Tsemekhman,
    K. Wolinski, J. Anchell, D. E. Bernholdt, P. Borowski, T. Clark, D. Clerc,
   H. Dachsel, M. J. O. Deegan, K. Dyall, D. Elwood, E. Glendening, M. Gutowski,
   A. C. Hess, J. Jaffe, B. G. Johnson, J. Ju, R. Kobayashi, R. Kutteh, Z. Lin,
   R. Littlefield, X. Long, B. Meng, T. Nakajima, S. Niu, L. Pollack, M. Rosing,
   K. Glaesemann, G. Sandrone, M. Stave, H. Taylor, G. Thomas, J. H. van Lenthe,
                               A. T. Wong, Z. Zhang.

 Total times  cpu:     6343.4s     wall:     7524.9s
