 argument  1 = /home/aditisingh4812/nw_chem/nwchem-run/nwchem-run/tddft/closed/lcwpbe/geom-MOL/twisted_dmabn.nw
                                         
                                         


             Northwest Computational Chemistry Package (NWChem) 7.2.3
             --------------------------------------------------------


                    Environmental Molecular Sciences Laboratory
                       Pacific Northwest National Laboratory
                                Richland, WA 99352

                              Copyright (c) 1994-2022
                       Pacific Northwest National Laboratory
                            Battelle Memorial Institute

             NWChem is an open-source computational chemistry package
                        distributed under the terms of the
                      Educational Community License (ECL) 2.0
             A copy of the license is included with this distribution
                              in the LICENSE.TXT file

                                  ACKNOWLEDGMENT
                                  --------------

            This software and its documentation were developed at the
            EMSL at Pacific Northwest National Laboratory, a multiprogram
            national laboratory, operated for the U.S. Department of Energy
            by Battelle under Contract Number DE-AC05-76RL01830. Support
            for this work was provided by the Department of Energy Office
            of Biological and Environmental Research, Office of Basic
            Energy Sciences, and the Office of Advanced Scientific Computing.


           Job information
           ---------------

    hostname        = p20
    program         = /home/aditisingh4812/nw_chem/nwchem-7.2.3-release.revision-d690e065-srconly.2024-08-27/nwchem-7.2.3/bin/LINUX64/nwchem
    date            = Wed Apr  9 10:32:54 2025

    compiled        = Mon_Apr_07_18:51:54_2025
    source          = /home/aditisingh4812/nw_chem/nwchem-7.2.3-release.revision-d690e065-srconly.2024-08-27/nwchem-7.2.3
    nwchem branch   = 7.2.3
    nwchem revision = d690e065
    ga revision     = 5.8.0
    use scalapack   = F
    input           = /home/aditisingh4812/nw_chem/nwchem-run/nwchem-run/tddft/closed/lcwpbe/geom-MOL/twisted_dmabn.nw
    prefix          = twisted_dmabn.
    data base       = ./twisted_dmabn.db
    status          = startup
    nproc           =       48
    time left       =     -1s



           Memory information
           ------------------

    heap     = ********** doubles = 100000.0 Mbytes
    stack    = ********** doubles = 100000.0 Mbytes
    global   = ********** doubles = 100000.0 Mbytes (distinct from heap & stack)
    total    = ********** doubles = 300000.0 Mbytes
    verify   = yes
    hardfail = no 


           Directory information
           ---------------------

  0 permanent = .
  0 scratch   = .




                                NWChem Input Module
                                -------------------



 Scaling coordinates for geometry "geometry" by  1.889725989
 (inverse scale =  0.529177249)



                             Geometry "geometry" -> ""
                             -------------------------

 Output coordinates in angstroms (scale by  1.889725989 to convert to a.u.)

  No.       Tag          Charge          X              Y              Z
 ---- ---------------- ---------- -------------- -------------- --------------
    1 C                    6.0000     0.00000000     0.00000000     0.90266891
    2 C                    6.0000     1.20242400     0.00000000     0.19192491
    3 C                    6.0000    -1.20242400     0.00000000     0.19192491
    4 C                    6.0000     0.00000000     0.00000000    -1.89239109
    5 C                    6.0000     1.20827200     0.00000000    -1.19489409
    6 C                    6.0000    -1.20827200     0.00000000    -1.19489409
    7 C                    6.0000     0.00000000     0.00000000    -3.32243109
    8 C                    6.0000     0.00000000    -1.26574800     2.99629691
    9 C                    6.0000     0.00000000     1.26574800     2.99629691
   10 N                    7.0000     0.00000000     0.00000000     2.30925091
   11 N                    7.0000     0.00000000     0.00000000    -4.48351809
   12 H                    1.0000     2.13140900     0.00000000     0.73886391
   13 H                    1.0000    -2.13140900     0.00000000     0.73886391
   14 H                    1.0000     2.13684000     0.00000000    -1.74104909
   15 H                    1.0000    -2.13684000     0.00000000    -1.74104909
   16 H                    1.0000     0.00000000    -1.08617900     4.06859991
   17 H                    1.0000     0.00000000     1.08617900     4.06859991
   18 H                    1.0000     0.88297400    -1.86756800     2.76000691
   19 H                    1.0000    -0.88297400    -1.86756800     2.76000691
   20 H                    1.0000    -0.88297400     1.86756800     2.76000691
   21 H                    1.0000     0.88297400     1.86756800     2.76000691

      Atomic Mass 
      ----------- 

      C                 12.000000
      N                 14.003070
      H                  1.007825


 Effective nuclear repulsion energy (a.u.)     546.9919894314

            Nuclear Dipole moment (a.u.) 
            ----------------------------
        X                 Y               Z
 ---------------- ---------------- ----------------
     0.0000000000     0.0000000000     0.0000000000


            XYZ format geometry
            -------------------
    21
 geometry
 C                     0.00000000     0.00000000     0.90266891
 C                     1.20242400     0.00000000     0.19192491
 C                    -1.20242400     0.00000000     0.19192491
 C                     0.00000000     0.00000000    -1.89239109
 C                     1.20827200     0.00000000    -1.19489409
 C                    -1.20827200     0.00000000    -1.19489409
 C                     0.00000000     0.00000000    -3.32243109
 C                     0.00000000    -1.26574800     2.99629691
 C                     0.00000000     1.26574800     2.99629691
 N                     0.00000000     0.00000000     2.30925091
 N                     0.00000000     0.00000000    -4.48351809
 H                     2.13140900     0.00000000     0.73886391
 H                    -2.13140900     0.00000000     0.73886391
 H                     2.13684000     0.00000000    -1.74104909
 H                    -2.13684000     0.00000000    -1.74104909
 H                     0.00000000    -1.08617900     4.06859991
 H                     0.00000000     1.08617900     4.06859991
 H                     0.88297400    -1.86756800     2.76000691
 H                    -0.88297400    -1.86756800     2.76000691
 H                    -0.88297400     1.86756800     2.76000691
 H                     0.88297400     1.86756800     2.76000691

 ==============================================================================
                                internuclear distances
 ------------------------------------------------------------------------------
       center one      |      center two      | atomic units |  angstroms
 ------------------------------------------------------------------------------
    2 C                |   1 C                |     2.63952  |     1.39678
    3 C                |   1 C                |     2.63952  |     1.39678
    5 C                |   2 C                |     2.62073  |     1.38683
    5 C                |   4 C                |     2.63644  |     1.39514
    6 C                |   3 C                |     2.62073  |     1.38683
    6 C                |   4 C                |     2.63644  |     1.39514
    7 C                |   4 C                |     2.70238  |     1.43004
   10 N                |   1 C                |     2.65805  |     1.40658
   10 N                |   8 C                |     2.72157  |     1.44019
   10 N                |   9 C                |     2.72157  |     1.44019
   11 N                |   7 C                |     2.19414  |     1.16109
   12 H                |   2 C                |     2.03719  |     1.07803
   13 H                |   3 C                |     2.03719  |     1.07803
   14 H                |   5 C                |     2.03576  |     1.07728
   15 H                |   6 C                |     2.03576  |     1.07728
   16 H                |   8 C                |     2.05458  |     1.08723
   17 H                |   9 C                |     2.05458  |     1.08723
   18 H                |   8 C                |     2.06807  |     1.09438
   19 H                |   8 C                |     2.06807  |     1.09438
   20 H                |   9 C                |     2.06807  |     1.09438
   21 H                |   9 C                |     2.06807  |     1.09438
 ------------------------------------------------------------------------------
                         number of included internuclear distances:         21
 ==============================================================================



 ==============================================================================
                                 internuclear angles
 ------------------------------------------------------------------------------
        center 1       |       center 2       |       center 3       |  degrees
 ------------------------------------------------------------------------------
    2 C                |   1 C                |   3 C                |   118.83
    2 C                |   1 C                |  10 N                |   120.59
    3 C                |   1 C                |  10 N                |   120.59
    1 C                |   2 C                |   5 C                |   120.83
    1 C                |   2 C                |  12 H                |   118.93
    5 C                |   2 C                |  12 H                |   120.25
    1 C                |   3 C                |   6 C                |   120.83
    1 C                |   3 C                |  13 H                |   118.93
    6 C                |   3 C                |  13 H                |   120.25
    5 C                |   4 C                |   6 C                |   120.01
    5 C                |   4 C                |   7 C                |   120.00
    6 C                |   4 C                |   7 C                |   120.00
    2 C                |   5 C                |   4 C                |   119.75
    2 C                |   5 C                |  14 H                |   120.70
    4 C                |   5 C                |  14 H                |   119.54
    3 C                |   6 C                |   4 C                |   119.75
    3 C                |   6 C                |  15 H                |   120.70
    4 C                |   6 C                |  15 H                |   119.54
    4 C                |   7 C                |  11 N                |   180.00
   10 N                |   8 C                |  16 H                |   108.99
   10 N                |   8 C                |  18 H                |   112.35
   10 N                |   8 C                |  19 H                |   112.35
   16 H                |   8 C                |  18 H                |   107.68
   16 H                |   8 C                |  19 H                |   107.68
   18 H                |   8 C                |  19 H                |   107.57
   10 N                |   9 C                |  17 H                |   108.99
   10 N                |   9 C                |  20 H                |   112.35
   10 N                |   9 C                |  21 H                |   112.35
   17 H                |   9 C                |  20 H                |   107.68
   17 H                |   9 C                |  21 H                |   107.68
   20 H                |   9 C                |  21 H                |   107.57
    1 C                |  10 N                |   8 C                |   118.49
    1 C                |  10 N                |   9 C                |   118.49
    8 C                |  10 N                |   9 C                |   123.01
 ------------------------------------------------------------------------------
                            number of included internuclear angles:         34
 ==============================================================================





 Summary of "ao basis" -> "" (cartesian)
 ------------------------------------------------------------------------------
       Tag                 Description            Shells   Functions and Types
 ---------------- ------------------------------  ------  ---------------------
 *                         def2-TZVPD                 on all atoms 


  pbe96 is a nonlocal functional; adding pw91lda local functional. 

                                 NWChem DFT Module
                                 -----------------


                      Basis "ao basis" -> "ao basis" (cartesian)
                      -----
  C (Carbon)
  ----------
            Exponent  Coefficients 
       -------------- ---------------------------------------------------------
  1 S  1.35753497E+04  0.000222
  1 S  2.03523337E+03  0.001723
  1 S  4.63225624E+02  0.008926
  1 S  1.31200196E+02  0.035728
  1 S  4.28530159E+01  0.110763
  1 S  1.55841858E+01  0.242956

  2 S  6.20671385E+00  0.414403
  2 S  2.57648965E+00  0.237450

  3 S  5.76963394E-01  1.000000

  4 S  2.29728314E-01  1.000000

  5 S  9.51644400E-02  1.000000

  6 S  4.84754014E-02  1.000000

  7 P  3.46972322E+01  0.005333
  7 P  7.95826228E+00  0.035864
  7 P  2.37808269E+00  0.142159
  7 P  8.14332082E-01  0.342705

  8 P  2.88875473E-01  1.000000

  9 P  1.00568237E-01  1.000000

 10 D  1.09700000E+00  1.000000

 11 D  3.18000000E-01  1.000000

 12 D  9.09853364E-02  1.000000

 13 F  7.61000000E-01  1.000000

  N (Nitrogen)
  ------------
            Exponent  Coefficients 
       -------------- ---------------------------------------------------------
  1 S  1.97308006E+04  0.000219
  1 S  2.95789587E+03  0.001696
  1 S  6.73221336E+02  0.008795
  1 S  1.90682495E+02  0.035359
  1 S  6.22954419E+01  0.110958
  1 S  2.26541612E+01  0.249830

  2 S  8.97914774E+00  0.406239
  2 S  3.68630024E+00  0.243382

  3 S  8.46600768E-01  1.000000

  4 S  3.36471338E-01  1.000000

  5 S  1.36476537E-01  1.000000

  6 S  6.84416058E-02  1.000000

  7 P  4.92003805E+01  0.005555
  7 P  1.13467905E+01  0.038052
  7 P  3.42739724E+00  0.149537
  7 P  1.17855251E+00  0.349493

  8 P  4.16422050E-01  1.000000

  9 P  1.42608260E-01  1.000000

 10 D  1.65400000E+00  1.000000

 11 D  4.69000000E-01  1.000000

 12 D  1.28296421E-01  1.000000

 13 F  1.09300000E+00  1.000000

  H (Hydrogen)
  ------------
            Exponent  Coefficients 
       -------------- ---------------------------------------------------------
  1 S  3.40613410E+01  0.006025
  1 S  5.12357460E+00  0.045021
  1 S  1.16466260E+00  0.201897

  2 S  3.27230410E-01  1.000000

  3 S  1.03072410E-01  1.000000

  4 P  8.00000000E-01  1.000000

  5 P  9.57741296E-02  1.000000



 Summary of "ao basis" -> "ao basis" (cartesian)
 ------------------------------------------------------------------------------
       Tag                 Description            Shells   Functions and Types
 ---------------- ------------------------------  ------  ---------------------
 C                         def2-TZVPD               13       43   6s3p3d1f
 N                         def2-TZVPD               13       43   6s3p3d1f
 H                         def2-TZVPD                5        9   3s2p




 Summary of "ao basis" -> "ao basis" (cartesian)
 ------------------------------------------------------------------------------
       Tag                 Description            Shells   Functions and Types
 ---------------- ------------------------------  ------  ---------------------
 C                         def2-TZVPD               13       43   6s3p3d1f
 N                         def2-TZVPD               13       43   6s3p3d1f
 H                         def2-TZVPD                5        9   3s2p


  int_init: cando_txs set to always be  F
  Caching 1-el integrals 

            General Information
            -------------------
          SCF calculation type: DFT
          Wavefunction type:  closed shell.
          No. of atoms     :    21
          No. of electrons :    78
           Alpha electrons :    39
            Beta electrons :    39
          Charge           :     0
          Spin multiplicity:     1
          Use of symmetry is: off; symmetry adaption is: off
          Maximum number of iterations:  50
          AO basis - number of functions:   563
                     number of shells:   193
          Convergence on energy requested:  1.00D-06
          Convergence on density requested:  1.00D-05
          Convergence on gradient requested:  5.00D-04

              XC Information
              --------------
                     Hartree-Fock (Exact) Exchange  1.000          
                     LC-wPBE(h)Exchange Functional  1.000          
            Perdew 1991 LDA Correlation Functional  1.000 local    
           PerdewBurkeErnz. Correlation Functional  1.000 non-local

           Range-Separation Parameters        
           ---------------------------
           Alpha           :  0.00
           Beta            :  1.00
           Gamma           :  0.26
           Short-Range HF  :     F

             Grid Information
             ----------------
          Grid used for XC integration:  xfine     
          Radial quadrature: Mura-Knowles        
          Angular quadrature: Lebedev. 
          Tag              B.-S. Rad. Rad. Pts. Rad. Cut. Ang. Pts.
          ---              ---------- --------- --------- ---------
          C                   0.70      100          18.0      1454
          N                   0.65      100          20.0      1454
          H                   0.35      100          20.0      1202
          Grid pruning is: on 
          Number of quadrature shells:  2100
          Spatial weights used:  Erf1

          Convergence Information
          -----------------------
          Convergence aids based upon iterative change in 
          total energy or number of iterations. 
          Levelshifting, if invoked, occurs when the 
          HOMO/LUMO gap drops below (HL_TOL):  1.00D-02
          DIIS, if invoked, will attempt to extrapolate 
          using up to (NFOCK): 10 stored Fock matrices.

                    Damping( 0%)  Levelshifting(0.5)       DIIS
                  --------------- ------------------- ---------------
          dE  on:    start            ASAP                start   
          dE off:    2 iters         50 iters            50 iters 


      Screening Tolerance Information
      -------------------------------
          Density screening/tol_rho:  1.00D-10
          AO Gaussian exp screening on grid/accAOfunc:  14
          CD Gaussian exp screening on grid/accCDfunc:  20
          XC Gaussian exp screening on grid/accXCfunc:  20
          Schwarz screening/accCoul:  1.00D-08

  
  CAM type calculations without CDFIT are
  only available with the direct option.
  Forcing Direct SCF
  

 WARNING : Found    16 linear dependencies 
 S eigenvalue threshold:     1.00000E-05
 Smallest S eigenvalue :     1.15494E-08
 Largest  S eigenvalue :     8.27637E-06


 !! The overlap matrix has  16 vectors deemed linearly dependent with
    eigenvalues:
 1.15D-08 1.15D-07 4.54D-07 4.91D-07 7.64D-07 7.77D-07 1.02D-06 1.53D-06
 2.21D-06 3.46D-06 3.64D-06 5.06D-06 5.17D-06 5.30D-06 6.66D-06 8.28D-06


      Superposition of Atomic Density Guess
      -------------------------------------

 Sum of atomic energies:        -452.66318133

      Non-variational initial energy
      ------------------------------

 Total energy =    -460.288650
 1-e energy   =   -1693.331677
 2-e energy   =     686.051037
 HOMO         =      -0.231987
 LUMO         =      -0.052802

  WARNING: movecs_in_org=atomic not equal to movecs_in=./twisted_dmabn.movecs
   Time after variat. SCF:     49.9
   Time prior to 1st pass:     49.9

 Grid_pts file          = ./twisted_dmabn.gridpts.00
 Record size in doubles =  12289        No. of grid_pts per rec  =   3070
 Max. records in memory =     24        Max. recs in file   =  21109390

 Grid integrated density:      78.159739858044
 Requested integration accuracy:   0.10E-07

           Memory utilization after 1st SCF pass: 
           Heap Space remaining (MW):     7864.15          7864145916
          Stack Space remaining (MW):    13107.20         13107196572

   convergence    iter        energy       DeltaE   RMS-Dens  Diis-err    time
 ---------------- ----- ----------------- --------- --------- ---------  ------
 d= 0,ls=0.0,diis     1   -456.4915339594 -1.00D+03  1.79D+02  4.35D+03   139.6
 Grid integrated density:      78.000071809182
 Requested integration accuracy:   0.10E-07
 d= 0,ls=0.0,diis     2   -425.2477017398  3.12D+01  1.67D+02  1.37D+02   243.4
 Grid integrated density:      77.999994765045
 Requested integration accuracy:   0.10E-07
 d= 0,ls=0.0,diis     3   -414.6438834132  1.06D+01  8.71D+00  1.89D+02   351.5
 Grid integrated density:      77.999996617120
 Requested integration accuracy:   0.10E-07
 d= 0,ls=0.0,diis     4   -401.4874488358  1.32D+01  1.28D+01  2.19D+02   454.5
 Grid integrated density:      77.999999115459
 Requested integration accuracy:   0.10E-07
 d= 0,ls=0.0,diis     5   -444.0426158019 -4.26D+01  9.73D+00  5.57D+01   587.3
 Grid integrated density:      78.000002579648
 Requested integration accuracy:   0.10E-07
 d= 0,ls=0.0,diis     6   -441.8036488026  2.24D+00  5.26D+01  9.41D+01   694.6
 Grid integrated density:      78.000001539618
 Requested integration accuracy:   0.10E-07
 d= 0,ls=0.0,diis     7   -457.2742357479 -1.55D+01  1.24D-01  7.36D+00   788.2
 Grid integrated density:      78.000000865160
 Requested integration accuracy:   0.10E-07
 d= 0,ls=0.5,diis     8   -453.9818667173  3.29D+00  4.45D-03  1.64D+01   876.1
 Grid integrated density:      78.000000901884
 Requested integration accuracy:   0.10E-07
 d= 0,ls=0.5,diis     9   -455.6432277405 -1.66D+00  2.72D-03  8.14D+00   983.7
 Grid integrated density:      78.000000911987
 Requested integration accuracy:   0.10E-07
 d= 0,ls=0.5,diis    10   -456.2935476481 -6.50D-01  2.86D-03  4.67D+00  1075.7
 Grid integrated density:      78.000001131921
 Requested integration accuracy:   0.10E-07
 d= 0,ls=0.5,diis    11   -457.2570797157 -9.64D-01  4.03D-03  2.52D+00  1167.0
 Grid integrated density:      78.000001032871
 Requested integration accuracy:   0.10E-07
 d= 0,ls=0.5,diis    12   -457.9096530121 -6.53D-01  1.74D-03  4.74D-01  1255.7
 Grid integrated density:      78.000001015907
 Requested integration accuracy:   0.10E-07
 d= 0,ls=0.5,diis    13   -458.0466653078 -1.37D-01  9.49D-04  3.70D-01  1348.6
 Grid integrated density:      78.000000996163
 Requested integration accuracy:   0.10E-07
  Resetting Diis
 d= 0,ls=0.5,diis    14   -458.0904022544 -4.37D-02  4.88D-04  3.76D-01  1439.4
 d= 0,ls=0.5,diis    15   -458.1104558069 -2.01D-02  1.18D-03  3.41D-01  1532.9
 d= 0,ls=0.5,diis    16   -458.1534285661 -4.30D-02  4.00D-04  1.44D-01  1623.7
 d= 0,ls=0.5,diis    17   -458.1665834601 -1.32D-02  2.41D-04  2.01D-02  1716.4
 d= 0,ls=0.5,diis    18   -458.1697323337 -3.15D-03  1.34D-04  4.60D-03  1809.5
 d= 0,ls=0.5,diis    19   -458.1708583651 -1.13D-03  8.56D-05  8.27D-04  1903.8
 d= 0,ls=0.5,diis    20   -458.1712402807 -3.82D-04  4.73D-05  2.35D-04  2014.5
 d= 0,ls=0.5,diis    21   -458.1713603859 -1.20D-04  2.63D-05  7.08D-05  2108.7
 d= 0,ls=0.5,diis    22   -458.1713969134 -3.65D-05  1.46D-05  2.01D-05  2200.5
 d= 0,ls=0.5,diis    23   -458.1714074884 -1.06D-05  8.64D-06  5.78D-06  2294.9
 d= 0,ls=0.5,diis    24   -458.1714105085 -3.02D-06  5.28D-06  1.65D-06  2388.6
 d= 0,ls=0.5,diis    25   -458.1714113836 -8.75D-07  2.95D-06  5.00D-07  2482.5


         Total DFT energy =     -458.171411642868
      One electron energy =    -1702.225999700139
           Coulomb energy =      763.026231912446
    Exchange-Corr. energy =      -65.963633286621
 Nuclear repulsion energy =      546.991989431446

 Numeric. integr. density =       78.000000194233

     Total iterative time =   2525.2s



                       DFT Final Molecular Orbital Analysis
                       ------------------------------------

 Vector    1  Occ=2.000000D+00  E=-1.413546D+01
              MO Center=  4.9D-10, -6.4D-10,  2.3D+00, r^2= 2.0D-02
   Bfn.  Coefficient  Atom+Function         Bfn.  Coefficient  Atom+Function  
  ----- ------------  ---------------      ----- ------------  ---------------
   389      0.619029  10 N  s               388      0.449521  10 N  s         
   391     -0.109271  10 N  s               390      0.099849  10 N  s         

 Vector    2  Occ=2.000000D+00  E=-1.413287D+01
              MO Center=  1.3D-10, -6.7D-10, -4.5D+00, r^2= 2.0D-02
   Bfn.  Coefficient  Atom+Function         Bfn.  Coefficient  Atom+Function  
  ----- ------------  ---------------      ----- ------------  ---------------
   432      0.619306  11 N  s               431      0.449373  11 N  s         
   434     -0.114422  11 N  s               433      0.097207  11 N  s         

 Vector    3  Occ=2.000000D+00  E=-1.009041D+01
              MO Center=  4.4D-09,  1.2D-10,  9.0D-01, r^2= 2.8D-02
   Bfn.  Coefficient  Atom+Function         Bfn.  Coefficient  Atom+Function  
  ----- ------------  ---------------      ----- ------------  ---------------
     2      0.599492   1 C  s                 1      0.468087   1 C  s         
     3      0.101664   1 C  s                 4     -0.099265   1 C  s         

 Vector    4  Occ=2.000000D+00  E=-1.008936D+01
              MO Center= -2.0D-08,  5.6D-10, -1.9D+00, r^2= 2.9D-02
   Bfn.  Coefficient  Atom+Function         Bfn.  Coefficient  Atom+Function  
  ----- ------------  ---------------      ----- ------------  ---------------
   131      0.599332   4 C  s               130      0.468025   4 C  s         
   132      0.102199   4 C  s               133     -0.101067   4 C  s         

 Vector    5  Occ=2.000000D+00  E=-1.007368D+01
              MO Center=  6.5D-13,  2.9D-10, -3.3D+00, r^2= 2.8D-02
   Bfn.  Coefficient  Atom+Function         Bfn.  Coefficient  Atom+Function  
  ----- ------------  ---------------      ----- ------------  ---------------
   260      0.599057   7 C  s               259      0.467874   7 C  s         
   262     -0.131045   7 C  s               261      0.106557   7 C  s         
   283      0.025246   7 C  dyy             280      0.025049   7 C  dxx       

 Vector    6  Occ=2.000000D+00  E=-1.006748D+01
              MO Center= -3.5D-01, -3.8D-10, -1.2D+00, r^2= 1.4D+00
   Bfn.  Coefficient  Atom+Function         Bfn.  Coefficient  Atom+Function  
  ----- ------------  ---------------      ----- ------------  ---------------
   217      0.481243   6 C  s               216      0.375779   6 C  s         
   174     -0.357128   5 C  s               173     -0.278863   5 C  s         
   218      0.082497   6 C  s               219     -0.081247   6 C  s         
   175     -0.061211   5 C  s               176      0.060104   5 C  s         

 Vector    7  Occ=2.000000D+00  E=-1.006747D+01
              MO Center=  3.5D-01,  1.7D-09, -1.2D+00, r^2= 1.4D+00
   Bfn.  Coefficient  Atom+Function         Bfn.  Coefficient  Atom+Function  
  ----- ------------  ---------------      ----- ------------  ---------------
   174      0.481218   5 C  s               173      0.375766   5 C  s         
   217      0.357095   6 C  s               216      0.278845   6 C  s         
   175      0.082526   5 C  s               176     -0.081868   5 C  s         
   218      0.061249   6 C  s               219     -0.060940   6 C  s         

 Vector    8  Occ=2.000000D+00  E=-1.006342D+01
              MO Center=  3.8D-10, -6.5D-01,  3.0D+00, r^2= 1.2D+00
   Bfn.  Coefficient  Atom+Function         Bfn.  Coefficient  Atom+Function  
  ----- ------------  ---------------      ----- ------------  ---------------
   303      0.520945   8 C  s               302      0.406774   8 C  s         
   346     -0.296813   9 C  s               345     -0.231759   9 C  s         
   305     -0.088828   8 C  s               304      0.087868   8 C  s         
   347     -0.050216   9 C  s               348      0.050339   9 C  s         

 Vector    9  Occ=2.000000D+00  E=-1.006341D+01
              MO Center= -4.1D-10,  6.5D-01,  3.0D+00, r^2= 1.2D+00
   Bfn.  Coefficient  Atom+Function         Bfn.  Coefficient  Atom+Function  
  ----- ------------  ---------------      ----- ------------  ---------------
   346      0.520941   9 C  s               345      0.406776   9 C  s         
   303      0.296806   8 C  s               302      0.231764   8 C  s         
   348     -0.089286   9 C  s               347      0.087610   9 C  s         
   305     -0.051143   8 C  s               304      0.049763   8 C  s         

 Vector   10  Occ=2.000000D+00  E=-1.005735D+01
              MO Center=  8.7D-02,  2.0D-09,  1.9D-01, r^2= 1.5D+00
   Bfn.  Coefficient  Atom+Function         Bfn.  Coefficient  Atom+Function  
  ----- ------------  ---------------      ----- ------------  ---------------
    45      0.438750   2 C  s                88     -0.408180   3 C  s         
    44      0.342603   2 C  s                87     -0.318732   3 C  s         
    46      0.075418   2 C  s                47     -0.074447   2 C  s         
    89     -0.070165   3 C  s                90      0.069241   3 C  s         

 Vector   11  Occ=2.000000D+00  E=-1.005734D+01
              MO Center= -8.7D-02,  3.2D-09,  1.9D-01, r^2= 1.5D+00
   Bfn.  Coefficient  Atom+Function         Bfn.  Coefficient  Atom+Function  
  ----- ------------  ---------------      ----- ------------  ---------------
    88      0.438739   3 C  s                45      0.408169   2 C  s         
    87      0.342604   3 C  s                44      0.318732   2 C  s         
    89      0.075390   3 C  s                90     -0.074719   3 C  s         
    46      0.070135   2 C  s                47     -0.069532   2 C  s         

 Vector   12  Occ=2.000000D+00  E=-1.019238D+00
              MO Center=  7.0D-07, -1.6D-06,  1.9D+00, r^2= 1.8D+00
   Bfn.  Coefficient  Atom+Function         Bfn.  Coefficient  Atom+Function  
  ----- ------------  ---------------      ----- ------------  ---------------
   391      0.298137  10 N  s               390      0.245023  10 N  s         
   389     -0.166639  10 N  s                 4      0.158873   1 C  s         
     3      0.152151   1 C  s                 2     -0.099730   1 C  s         
   305      0.091127   8 C  s               348      0.091125   9 C  s         
   304      0.089985   8 C  s               347      0.089984   9 C  s         

 Vector   13  Occ=2.000000D+00  E=-9.805433D-01
              MO Center= -5.9D-07, -1.6D-07, -3.1D+00, r^2= 3.1D+00
   Bfn.  Coefficient  Atom+Function         Bfn.  Coefficient  Atom+Function  
  ----- ------------  ---------------      ----- ------------  ---------------
   262      0.282708   7 C  s               433      0.259020  11 N  s         
   261      0.244413   7 C  s               432     -0.151969  11 N  s         
   260     -0.145304   7 C  s               132      0.134464   4 C  s         
   439      0.128909  11 N  pz              267     -0.106829   7 C  pz        
   434      0.094919  11 N  s               291     -0.091825   7 C  dzz       

 Vector   14  Occ=2.000000D+00  E=-9.509996D-01
              MO Center= -5.6D-06, -3.3D-07, -1.3D+00, r^2= 5.2D+00
   Bfn.  Coefficient  Atom+Function         Bfn.  Coefficient  Atom+Function  
  ----- ------------  ---------------      ----- ------------  ---------------
   133      0.228400   4 C  s               262     -0.212161   7 C  s         
   433     -0.172791  11 N  s               132      0.136782   4 C  s         
   175      0.131565   5 C  s               218      0.131566   6 C  s         
   267      0.127190   7 C  pz              391     -0.106446  10 N  s         
    46      0.103089   2 C  s                89      0.103090   3 C  s         

 Vector   15  Occ=2.000000D+00  E=-8.619202D-01
              MO Center=  3.7D-06, -2.5D-06, -2.7D-01, r^2= 5.2D+00
   Bfn.  Coefficient  Atom+Function         Bfn.  Coefficient  Atom+Function  
  ----- ------------  ---------------      ----- ------------  ---------------
   133      0.256849   4 C  s                 4     -0.200637   1 C  s         
   132      0.190936   4 C  s                 3     -0.179315   1 C  s         
   267      0.126683   7 C  pz               46     -0.119014   2 C  s         
    89     -0.119013   3 C  s               131     -0.117763   4 C  s         
     2      0.108700   1 C  s                47     -0.095509   2 C  s         

 Vector   16  Occ=2.000000D+00  E=-8.543804D-01
              MO Center= -6.3D-06,  2.5D-07, -5.4D-01, r^2= 2.9D+00
   Bfn.  Coefficient  Atom+Function         Bfn.  Coefficient  Atom+Function  
  ----- ------------  ---------------      ----- ------------  ---------------
   175      0.185470   5 C  s               218     -0.185470   6 C  s         
    46      0.176982   2 C  s                89     -0.176982   3 C  s         
   176      0.176325   5 C  s               219     -0.176328   6 C  s         
    47      0.164574   2 C  s                90     -0.164576   3 C  s         
   174     -0.113938   5 C  s               217      0.113938   6 C  s         

 Vector   17  Occ=2.000000D+00  E=-8.088670D-01
              MO Center=  1.8D-07, -6.2D-06,  2.9D+00, r^2= 2.6D+00
   Bfn.  Coefficient  Atom+Function         Bfn.  Coefficient  Atom+Function  
  ----- ------------  ---------------      ----- ------------  ---------------
   305      0.268666   8 C  s               348     -0.268664   9 C  s         
   304      0.206029   8 C  s               347     -0.206028   9 C  s         
   395     -0.157647  10 N  py              303     -0.138230   8 C  s         
   346      0.138229   9 C  s               398     -0.090980  10 N  py        
   302     -0.068001   8 C  s               345      0.068001   9 C  s         

 Vector   18  Occ=2.000000D+00  E=-7.648218D-01
              MO Center=  5.8D-06,  7.0D-06,  7.5D-01, r^2= 7.0D+00
   Bfn.  Coefficient  Atom+Function         Bfn.  Coefficient  Atom+Function  
  ----- ------------  ---------------      ----- ------------  ---------------
     4      0.164067   1 C  s               305     -0.150181   8 C  s         
   348     -0.150185   9 C  s               396     -0.139650  10 N  pz        
   133      0.136715   4 C  s               267      0.121699   7 C  pz        
     3      0.118654   1 C  s               304     -0.116957   8 C  s         
   347     -0.116959   9 C  s               132      0.112086   4 C  s         

 Vector   19  Occ=2.000000D+00  E=-7.208823D-01
              MO Center= -5.0D-06, -6.9D-08, -4.7D-01, r^2= 3.7D+00
   Bfn.  Coefficient  Atom+Function         Bfn.  Coefficient  Atom+Function  
  ----- ------------  ---------------      ----- ------------  ---------------
    47      0.173174   2 C  s                90     -0.173173   3 C  s         
   176     -0.169660   5 C  s               219      0.169659   6 C  s         
   136     -0.163656   4 C  px                7      0.160971   1 C  px        
    46      0.150710   2 C  s                89     -0.150711   3 C  s         
   175     -0.144397   5 C  s               218      0.144397   6 C  s         

 Vector   20  Occ=2.000000D+00  E=-6.894476D-01
              MO Center=  2.3D-07, -2.5D-08,  7.5D-01, r^2= 7.2D+00
   Bfn.  Coefficient  Atom+Function         Bfn.  Coefficient  Atom+Function  
  ----- ------------  ---------------      ----- ------------  ---------------
   391      0.185797  10 N  s                 9      0.128135   1 C  pz        
   176      0.126458   5 C  s               219      0.126458   6 C  s         
   390      0.125094  10 N  s               305     -0.123121   8 C  s         
   348     -0.123122   9 C  s                 4     -0.119680   1 C  s         
     3     -0.112893   1 C  s               175      0.112024   5 C  s         

 Vector   21  Occ=2.000000D+00  E=-6.546713D-01
              MO Center= -3.6D-06,  4.3D-08, -8.6D-01, r^2= 4.2D+00
   Bfn.  Coefficient  Atom+Function         Bfn.  Coefficient  Atom+Function  
  ----- ------------  ---------------      ----- ------------  ---------------
   138      0.206401   4 C  pz              179     -0.148220   5 C  px        
   222      0.148222   6 C  px              262     -0.147699   7 C  s         
   270     -0.134900   7 C  pz               50     -0.125062   2 C  px        
    93      0.125063   3 C  px              267     -0.122817   7 C  pz        
   133      0.101268   4 C  s               475     -0.101293  12 H  s         

 Vector   22  Occ=2.000000D+00  E=-6.002312D-01
              MO Center= -1.9D-06, -4.8D-06,  1.5D+00, r^2= 6.1D+00
   Bfn.  Coefficient  Atom+Function         Bfn.  Coefficient  Atom+Function  
  ----- ------------  ---------------      ----- ------------  ---------------
   396      0.217833  10 N  pz              309      0.161310   8 C  py        
   352     -0.161308   9 C  py                9     -0.138337   1 C  pz        
    12     -0.113171   1 C  pz                4     -0.111842   1 C  s         
   391      0.108071  10 N  s               399      0.107193  10 N  pz        
   176     -0.101528   5 C  s               219     -0.101526   6 C  s         

 Vector   23  Occ=2.000000D+00  E=-5.832711D-01
              MO Center=  4.1D-07, -1.9D-06, -9.8D-03, r^2= 4.6D+00
   Bfn.  Coefficient  Atom+Function         Bfn.  Coefficient  Atom+Function  
  ----- ------------  ---------------      ----- ------------  ---------------
   136      0.182882   4 C  px                7      0.179401   1 C  px        
   181     -0.165744   5 C  pz              224      0.165745   6 C  pz        
    52      0.159374   2 C  pz               95     -0.159375   3 C  pz        
   159      0.143619   4 C  dxz             394      0.118525  10 N  px        
   139      0.107591   4 C  px               10      0.102254   1 C  px        

 Vector   24  Occ=2.000000D+00  E=-5.603681D-01
              MO Center= -8.5D-07,  9.7D-07,  2.6D+00, r^2= 3.1D+00
   Bfn.  Coefficient  Atom+Function         Bfn.  Coefficient  Atom+Function  
  ----- ------------  ---------------      ----- ------------  ---------------
   395      0.254730  10 N  py              310      0.167838   8 C  pz        
   353     -0.167836   9 C  pz              398      0.155463  10 N  py        
   401      0.150224  10 N  py                8      0.122565   1 C  py        
    32     -0.121960   1 C  dyz             309     -0.120304   8 C  py        
   352     -0.120305   9 C  py              511      0.112464  16 H  s         

 Vector   25  Occ=2.000000D+00  E=-5.475465D-01
              MO Center= -7.2D-06, -6.4D-07, -2.5D-01, r^2= 5.3D+00
   Bfn.  Coefficient  Atom+Function         Bfn.  Coefficient  Atom+Function  
  ----- ------------  ---------------      ----- ------------  ---------------
    50      0.146464   2 C  px               93     -0.146459   3 C  px        
   179     -0.144726   5 C  px              222      0.144734   6 C  px        
   133      0.134742   4 C  s               493     -0.122093  14 H  s         
   502     -0.122098  15 H  s                 3     -0.120886   1 C  s         
     4     -0.120184   1 C  s               475      0.112640  12 H  s         

 Vector   26  Occ=2.000000D+00  E=-5.310031D-01
              MO Center=  4.7D-06, -1.1D-05,  4.1D-01, r^2= 6.4D+00
   Bfn.  Coefficient  Atom+Function         Bfn.  Coefficient  Atom+Function  
  ----- ------------  ---------------      ----- ------------  ---------------
   179      0.167173   5 C  px              222      0.167167   6 C  px        
   136     -0.130308   4 C  px               50      0.129389   2 C  px        
    93      0.129395   3 C  px              308      0.128830   8 C  px        
   351      0.128827   9 C  px               30     -0.121988   1 C  dxz       
   314      0.114430   8 C  px              357      0.114425   9 C  px        

 Vector   27  Occ=2.000000D+00  E=-5.225354D-01
              MO Center= -3.1D-05, -1.8D-05,  1.1D+00, r^2= 6.1D+00
   Bfn.  Coefficient  Atom+Function         Bfn.  Coefficient  Atom+Function  
  ----- ------------  ---------------      ----- ------------  ---------------
   308     -0.153244   8 C  px              351     -0.153238   9 C  px        
    52      0.143282   2 C  pz               95     -0.143289   3 C  pz        
   181     -0.125936   5 C  pz              224      0.125942   6 C  pz        
   314     -0.120501   8 C  px              357     -0.120494   9 C  px        
   311     -0.105011   8 C  px              354     -0.105008   9 C  px        

 Vector   28  Occ=2.000000D+00  E=-5.113048D-01
              MO Center=  3.3D-05, -6.5D-06,  6.8D-01, r^2= 8.0D+00
   Bfn.  Coefficient  Atom+Function         Bfn.  Coefficient  Atom+Function  
  ----- ------------  ---------------      ----- ------------  ---------------
    52      0.158204   2 C  pz               95      0.158197   3 C  pz        
   181     -0.152614   5 C  pz              224     -0.152608   6 C  pz        
   310      0.136412   8 C  pz              353      0.136411   9 C  pz        
   262     -0.134123   7 C  s               138      0.120399   4 C  pz        
   273     -0.120757   7 C  pz              511      0.113239  16 H  s         

 Vector   29  Occ=2.000000D+00  E=-5.044474D-01
              MO Center= -4.6D-06,  3.3D-07, -1.3D+00, r^2= 4.7D+00
   Bfn.  Coefficient  Atom+Function         Bfn.  Coefficient  Atom+Function  
  ----- ------------  ---------------      ----- ------------  ---------------
   137      0.212124   4 C  py              140      0.172789   4 C  py        
   266      0.161830   7 C  py              180      0.148314   5 C  py        
   223      0.148317   6 C  py              269      0.132556   7 C  py        
   183      0.126581   5 C  py              226      0.126583   6 C  py        
   438      0.115598  11 N  py               51      0.102202   2 C  py        

 Vector   30  Occ=2.000000D+00  E=-4.916153D-01
              MO Center=  3.6D-07,  2.9D-05,  2.9D+00, r^2= 3.6D+00
   Bfn.  Coefficient  Atom+Function         Bfn.  Coefficient  Atom+Function  
  ----- ------------  ---------------      ----- ------------  ---------------
   308      0.241266   8 C  px              351     -0.241270   9 C  px        
   314      0.202232   8 C  px              357     -0.202235   9 C  px        
   529      0.154912  18 H  s               538     -0.154912  19 H  s         
   547      0.154914  20 H  s               556     -0.154914  21 H  s         
   311      0.153525   8 C  px              354     -0.153528   9 C  px        

 Vector   31  Occ=2.000000D+00  E=-4.677803D-01
              MO Center= -6.5D-07, -2.5D-05,  3.1D+00, r^2= 3.3D+00
   Bfn.  Coefficient  Atom+Function         Bfn.  Coefficient  Atom+Function  
  ----- ------------  ---------------      ----- ------------  ---------------
   309      0.202623   8 C  py              352      0.202625   9 C  py        
   316      0.190382   8 C  pz              359     -0.190378   9 C  pz        
   511      0.149710  16 H  s               520     -0.149703  17 H  s         
   310      0.147500   8 C  pz              315      0.147241   8 C  py        
   353     -0.147491   9 C  pz              358      0.147239   9 C  py        

 Vector   32  Occ=2.000000D+00  E=-4.625583D-01
              MO Center=  3.5D-06,  3.9D-05,  1.1D+00, r^2= 9.2D+00
   Bfn.  Coefficient  Atom+Function         Bfn.  Coefficient  Atom+Function  
  ----- ------------  ---------------      ----- ------------  ---------------
   396     -0.202717  10 N  pz                9      0.189914   1 C  pz        
   262      0.162641   7 C  s               434     -0.157658  11 N  s         
   310      0.154197   8 C  pz              353      0.154207   9 C  pz        
   511      0.134780  16 H  s               520      0.134790  17 H  s         
   399     -0.120665  10 N  pz              439      0.119976  11 N  pz        

 Vector   33  Occ=2.000000D+00  E=-4.569844D-01
              MO Center=  5.8D-06,  1.6D-06, -7.9D-01, r^2= 5.9D+00
   Bfn.  Coefficient  Atom+Function         Bfn.  Coefficient  Atom+Function  
  ----- ------------  ---------------      ----- ------------  ---------------
     7      0.202139   1 C  px               50     -0.168637   2 C  px        
    93     -0.168637   3 C  px              136     -0.143490   4 C  px        
   265     -0.140408   7 C  px               56     -0.138577   2 C  px        
    99     -0.138576   3 C  px              179      0.134628   5 C  px        
   222      0.134628   6 C  px              437     -0.126047  11 N  px        

 Vector   34  Occ=2.000000D+00  E=-4.416023D-01
              MO Center=  1.1D-06,  1.0D-06, -3.9D+00, r^2= 4.4D+00
   Bfn.  Coefficient  Atom+Function         Bfn.  Coefficient  Atom+Function  
  ----- ------------  ---------------      ----- ------------  ---------------
   434      0.422041  11 N  s               439     -0.351365  11 N  pz        
   262     -0.321572   7 C  s               435      0.238266  11 N  s         
   267      0.219073   7 C  pz              270      0.191028   7 C  pz        
   433      0.176283  11 N  s               436      0.170645  11 N  s         
   133      0.145899   4 C  s               162     -0.135136   4 C  dzz       

 Vector   35  Occ=2.000000D+00  E=-4.400257D-01
              MO Center= -1.3D-07,  2.8D-06, -2.1D+00, r^2= 6.7D+00
   Bfn.  Coefficient  Atom+Function         Bfn.  Coefficient  Atom+Function  
  ----- ------------  ---------------      ----- ------------  ---------------
   438      0.253208  11 N  py              266      0.244023   7 C  py        
   441      0.202495  11 N  py              269      0.196964   7 C  py        
     8     -0.141357   1 C  py               51     -0.125590   2 C  py        
    94     -0.125592   3 C  py               11     -0.110972   1 C  py        
    54     -0.108138   2 C  py               97     -0.108140   3 C  py        

 Vector   36  Occ=2.000000D+00  E=-4.209873D-01
              MO Center=  5.9D-07, -7.6D-08, -3.3D+00, r^2= 3.5D+00
   Bfn.  Coefficient  Atom+Function         Bfn.  Coefficient  Atom+Function  
  ----- ------------  ---------------      ----- ------------  ---------------
   437      0.304364  11 N  px              265      0.258088   7 C  px        
   440      0.243086  11 N  px              268      0.214690   7 C  px        
   443      0.135432  11 N  px              136     -0.132359   4 C  px        
   159     -0.115755   4 C  dxz             179      0.095421   5 C  px        
   222      0.095422   6 C  px              139     -0.082604   4 C  px        

 Vector   37  Occ=2.000000D+00  E=-3.653240D-01
              MO Center=  5.8D-05,  5.5D-07, -5.1D-01, r^2= 3.0D+00
   Bfn.  Coefficient  Atom+Function         Bfn.  Coefficient  Atom+Function  
  ----- ------------  ---------------      ----- ------------  ---------------
   180      0.219628   5 C  py              223     -0.219617   6 C  py        
    51      0.212676   2 C  py               94     -0.212667   3 C  py        
   183      0.189475   5 C  py              226     -0.189463   6 C  py        
    54      0.184380   2 C  py               97     -0.184371   3 C  py        
   186      0.128270   5 C  py              229     -0.128265   6 C  py        

 Vector   38  Occ=2.000000D+00  E=-3.482590D-01
              MO Center= -4.5D-05,  1.0D-06, -1.1D+00, r^2= 5.5D+00
   Bfn.  Coefficient  Atom+Function         Bfn.  Coefficient  Atom+Function  
  ----- ------------  ---------------      ----- ------------  ---------------
   137     -0.226591   4 C  py                8      0.225056   1 C  py        
   140     -0.193230   4 C  py              438      0.190159  11 N  py        
    11      0.180692   1 C  py              441      0.154637  11 N  py        
    51      0.116312   2 C  py               94      0.116329   3 C  py        
    14      0.114454   1 C  py              180     -0.111977   5 C  py        

 Vector   39  Occ=2.000000D+00  E=-2.905505D-01
              MO Center= -6.6D-07, -1.1D-06,  2.3D+00, r^2= 2.4D+00
   Bfn.  Coefficient  Atom+Function         Bfn.  Coefficient  Atom+Function  
  ----- ------------  ---------------      ----- ------------  ---------------
   394      0.401807  10 N  px              397      0.347985  10 N  px        
   400      0.333426  10 N  px              314     -0.224996   8 C  px        
   357     -0.224995   9 C  px              530      0.148954  18 H  s         
   539     -0.148953  19 H  s               548     -0.148930  20 H  s         
   557      0.148958  21 H  s               529     -0.114332  18 H  s         

 Vector   40  Occ=0.000000D+00  E= 5.093169D-03
              MO Center= -5.7D-05, -2.2D-06, -1.1D+00, r^2= 5.7D+00
   Bfn.  Coefficient  Atom+Function         Bfn.  Coefficient  Atom+Function  
  ----- ------------  ---------------      ----- ------------  ---------------
     8      0.247467   1 C  py               11      0.233877   1 C  py        
   137      0.215579   4 C  py              140      0.212569   4 C  py        
   290      0.207349   7 C  dyz             315     -0.203728   8 C  py        
   358     -0.203727   9 C  py              401     -0.176148  10 N  py        
   438     -0.176464  11 N  py              441     -0.167588  11 N  py        

 Vector   41  Occ=0.000000D+00  E= 3.125338D-02
              MO Center=  4.7D-05,  2.2D-06, -4.7D-01, r^2= 4.1D+00
   Bfn.  Coefficient  Atom+Function         Bfn.  Coefficient  Atom+Function  
  ----- ------------  ---------------      ----- ------------  ---------------
   530      0.400018  18 H  s               539     -0.400010  19 H  s         
   548      0.400044  20 H  s               557     -0.400022  21 H  s         
   314     -0.238512   8 C  px              357      0.238532   9 C  px        
    51      0.222682   2 C  py               94     -0.222676   3 C  py        
   180     -0.220495   5 C  py              223      0.220486   6 C  py        

 Vector   42  Occ=0.000000D+00  E= 4.131446D-02
              MO Center= -1.3D-05, -9.3D-06,  2.2D+00, r^2= 1.9D+01
   Bfn.  Coefficient  Atom+Function         Bfn.  Coefficient  Atom+Function  
  ----- ------------  ---------------      ----- ------------  ---------------
     6      6.248451   1 C  s               307     -3.911824   8 C  s         
   350     -3.911800   9 C  s                49     -3.402899   2 C  s         
    92     -3.402945   3 C  s               135      2.801199   4 C  s         
   393      2.606205  10 N  s               264     -2.125644   7 C  s         
   392      1.922136  10 N  s               435      1.803654  11 N  s         

 Vector   43  Occ=0.000000D+00  E= 6.175872D-02
              MO Center= -6.3D-05, -1.1D-05, -3.5D-01, r^2= 2.5D+01
   Bfn.  Coefficient  Atom+Function         Bfn.  Coefficient  Atom+Function  
  ----- ------------  ---------------      ----- ------------  ---------------
   135      8.833422   4 C  s               264     -6.939727   7 C  s         
   178     -4.413800   5 C  s               221     -4.413899   6 C  s         
   307      3.136360   8 C  s               350      3.136286   9 C  s         
   476     -2.733192  12 H  s               485     -2.733163  13 H  s         
   393     -2.587272  10 N  s               291      2.458940   7 C  dzz       

 Vector   44  Occ=0.000000D+00  E= 6.943824D-02
              MO Center=  4.9D-05, -1.4D-06, -1.3D-01, r^2= 1.8D+01
   Bfn.  Coefficient  Atom+Function         Bfn.  Coefficient  Atom+Function  
  ----- ------------  ---------------      ----- ------------  ---------------
    49      5.253645   2 C  s                92     -5.253642   3 C  s         
   178      2.692129   5 C  s               221     -2.691976   6 C  s         
    71     -1.996364   2 C  dxx             114      1.996307   3 C  dxx       
    13     -1.721675   1 C  px              476      1.700349  12 H  s         
   485     -1.700162  13 H  s               142     -1.158108   4 C  px        

 Vector   45  Occ=0.000000D+00  E= 6.952168D-02
              MO Center= -3.4D-06,  1.6D-05,  3.2D+00, r^2= 1.7D+01
   Bfn.  Coefficient  Atom+Function         Bfn.  Coefficient  Atom+Function  
  ----- ------------  ---------------      ----- ------------  ---------------
   307      6.396211   8 C  s               350     -6.396260   9 C  s         
   332     -1.521349   8 C  dyy             334     -1.515539   8 C  dzz       
   375      1.521357   9 C  dyy             377      1.515552   9 C  dzz       
   419      1.403812  10 N  dyz             401      1.273775  10 N  py        
   329     -1.082125   8 C  dxx             372      1.082128   9 C  dxx       

 Vector   46  Occ=0.000000D+00  E= 9.053470D-02
              MO Center=  1.5D-05, -8.7D-08, -2.7D-01, r^2= 2.5D+01
   Bfn.  Coefficient  Atom+Function         Bfn.  Coefficient  Atom+Function  
  ----- ------------  ---------------      ----- ------------  ---------------
     6      9.046184   1 C  s                49     -8.131987   2 C  s         
    92     -8.131926   3 C  s               291     -5.831828   7 C  dzz       
   264      4.849189   7 C  s               162     -4.499319   4 C  dzz       
    58     -2.961332   2 C  pz              101     -2.961328   3 C  pz        
   476      2.886300  12 H  s               485      2.886287  13 H  s         

 Vector   47  Occ=0.000000D+00  E= 9.695804D-02
              MO Center= -1.3D-05, -1.4D-06, -2.1D+00, r^2= 1.3D+01
   Bfn.  Coefficient  Atom+Function         Bfn.  Coefficient  Atom+Function  
  ----- ------------  ---------------      ----- ------------  ---------------
   178      7.464301   5 C  s               221     -7.464422   6 C  s         
    49     -6.668351   2 C  s                92      6.668412   3 C  s         
   142     -2.506032   4 C  px              159      2.049482   4 C  dxz       
   200     -1.754924   5 C  dxx             243      1.754924   6 C  dxx       
   494      1.707097  14 H  s               503     -1.707010  15 H  s         

 Vector   48  Occ=0.000000D+00  E= 9.940871D-02
              MO Center=  5.8D-07, -6.6D-07, -2.4D-01, r^2= 1.5D+01
   Bfn.  Coefficient  Atom+Function         Bfn.  Coefficient  Atom+Function  
  ----- ------------  ---------------      ----- ------------  ---------------
   135     11.646564   4 C  s                 6     10.010527   1 C  s         
   264     -4.239822   7 C  s               178     -3.450026   5 C  s         
   221     -3.449889   6 C  s               494      3.091308  14 H  s         
   503      3.091457  15 H  s               512      2.579176  16 H  s         
   521      2.579189  17 H  s               162     -2.449040   4 C  dzz       

 Vector   49  Occ=0.000000D+00  E= 1.107362D-01
              MO Center= -7.6D-06, -1.4D-06, -2.1D+00, r^2= 1.5D+01
   Bfn.  Coefficient  Atom+Function         Bfn.  Coefficient  Atom+Function  
  ----- ------------  ---------------      ----- ------------  ---------------
   178     -8.244535   5 C  s               221      8.244603   6 C  s         
    49      7.959691   2 C  s                92     -7.959801   3 C  s         
   142      2.207645   4 C  px              200      2.036678   5 C  dxx       
   243     -2.036691   6 C  dxx             494     -2.001284  14 H  s         
   159     -1.991321   4 C  dxz             503      2.001269  15 H  s         

 Vector   50  Occ=0.000000D+00  E= 1.200621D-01
              MO Center=  1.1D-05, -2.4D-06,  2.0D+00, r^2= 2.2D+01
   Bfn.  Coefficient  Atom+Function         Bfn.  Coefficient  Atom+Function  
  ----- ------------  ---------------      ----- ------------  ---------------
   512      8.432944  16 H  s               521      8.432933  17 H  s         
   264      6.317095   7 C  s                 6      5.221967   1 C  s         
   316     -5.219350   8 C  pz              359     -5.219350   9 C  pz        
   178     -4.928723   5 C  s               221     -4.928730   6 C  s         
   392     -4.221106  10 N  s                33     -3.958170   1 C  dzz       

 Vector   51  Occ=0.000000D+00  E= 1.259085D-01
              MO Center=  5.6D-06, -6.4D-05,  1.6D+00, r^2= 2.0D+01
   Bfn.  Coefficient  Atom+Function         Bfn.  Coefficient  Atom+Function  
  ----- ------------  ---------------      ----- ------------  ---------------
   393      7.600070  10 N  s               178     -6.919703   5 C  s         
   221     -6.919673   6 C  s               512     -6.432689  16 H  s         
   521     -6.432892  17 H  s               135      6.361234   4 C  s         
   476     -4.788452  12 H  s               485     -4.788466  13 H  s         
   392      4.244419  10 N  s               316      3.687472   8 C  pz        

 Vector   52  Occ=0.000000D+00  E= 1.264405D-01
              MO Center= -2.3D-06,  6.2D-05, -3.1D-01, r^2= 1.4D+01
   Bfn.  Coefficient  Atom+Function         Bfn.  Coefficient  Atom+Function  
  ----- ------------  ---------------      ----- ------------  ---------------
   315      2.815860   8 C  py              358      2.816203   9 C  py        
   530      2.122045  18 H  s               539      2.121999  19 H  s         
   548     -2.122204  20 H  s               557     -2.122195  21 H  s         
   401      1.369413  10 N  py              419      1.352042  10 N  dyz       
   512     -1.245538  16 H  s               521      1.244769  17 H  s         

 Vector   53  Occ=0.000000D+00  E= 1.360036D-01
              MO Center=  3.1D-06, -5.9D-06,  2.1D+00, r^2= 1.5D+01
   Bfn.  Coefficient  Atom+Function         Bfn.  Coefficient  Atom+Function  
  ----- ------------  ---------------      ----- ------------  ---------------
   530      8.458047  18 H  s               539     -8.458035  19 H  s         
   548      8.458009  20 H  s               557     -8.458030  21 H  s         
   314     -5.409123   8 C  px              357      5.409106   9 C  px        
    29      4.687948   1 C  dxy              75     -2.769938   2 C  dyz       
   118      2.769946   3 C  dyz             330      2.315431   8 C  dxy       

 Vector   54  Occ=0.000000D+00  E= 1.547549D-01
              MO Center=  6.0D-06,  7.6D-08,  2.6D+00, r^2= 1.3D+01
   Bfn.  Coefficient  Atom+Function         Bfn.  Coefficient  Atom+Function  
  ----- ------------  ---------------      ----- ------------  ---------------
   476      6.508699  12 H  s               485     -6.508387  13 H  s         
   494      5.567535  14 H  s               503     -5.567861  15 H  s         
   530     -5.344082  18 H  s               539      5.344080  19 H  s         
   548      5.344110  20 H  s               557     -5.344103  21 H  s         
   314      5.310414   8 C  px              357      5.310429   9 C  px        

 Vector   55  Occ=0.000000D+00  E= 1.561500D-01
              MO Center= -1.8D-05, -2.9D-06, -2.0D+00, r^2= 2.1D+01
   Bfn.  Coefficient  Atom+Function         Bfn.  Coefficient  Atom+Function  
  ----- ------------  ---------------      ----- ------------  ---------------
   135     21.223386   4 C  s                 6    -13.948793   1 C  s         
   291      7.194173   7 C  dzz             436     -6.123621  11 N  s         
   476     -5.568989  12 H  s               485     -5.569182  13 H  s         
   178     -5.135752   5 C  s               221     -5.135611   6 C  s         
   264     -4.735457   7 C  s                58      3.494747   2 C  pz        

 Vector   56  Occ=0.000000D+00  E= 1.625725D-01
              MO Center= -9.0D-06, -6.0D-06, -7.2D-01, r^2= 2.3D+01
   Bfn.  Coefficient  Atom+Function         Bfn.  Coefficient  Atom+Function  
  ----- ------------  ---------------      ----- ------------  ---------------
     6     17.454480   1 C  s                49    -11.397766   2 C  s         
    92    -11.397845   3 C  s               494     -9.570172  14 H  s         
   503     -9.569881  15 H  s               178      5.933509   5 C  s         
   221      5.933633   6 C  s               135     -5.758661   4 C  s         
   436     -4.820829  11 N  s               291      4.131977   7 C  dzz       

 Vector   57  Occ=0.000000D+00  E= 1.665621D-01
              MO Center= -3.1D-06,  9.9D-06,  1.4D+00, r^2= 1.8D+01
   Bfn.  Coefficient  Atom+Function         Bfn.  Coefficient  Atom+Function  
  ----- ------------  ---------------      ----- ------------  ---------------
   512     -5.101590  16 H  s               521      5.101668  17 H  s         
   315      4.985642   8 C  py              358      4.985664   9 C  py        
   530      4.949425  18 H  s               539      4.949613  19 H  s         
   548     -4.949449  20 H  s               557     -4.949580  21 H  s         
   401      2.011206  10 N  py              419      1.882519  10 N  dyz       

 Vector   58  Occ=0.000000D+00  E= 1.679721D-01
              MO Center=  1.5D-05,  4.9D-06,  1.1D+00, r^2= 1.9D+01
   Bfn.  Coefficient  Atom+Function         Bfn.  Coefficient  Atom+Function  
  ----- ------------  ---------------      ----- ------------  ---------------
    30      9.613191   1 C  dxz             494      8.103704  14 H  s         
   503     -8.103871  15 H  s               476      6.277633  12 H  s         
   485     -6.277573  13 H  s               178      5.804227   5 C  s         
   221     -5.804337   6 C  s                76     -4.805413   2 C  dzz       
   119      4.805430   3 C  dzz              49     -4.392414   2 C  s         

 Vector   59  Occ=0.000000D+00  E= 1.737250D-01
              MO Center= -1.7D-05, -6.2D-07, -1.4D+00, r^2= 1.2D+01
   Bfn.  Coefficient  Atom+Function         Bfn.  Coefficient  Atom+Function  
  ----- ------------  ---------------      ----- ------------  ---------------
    75      3.937792   2 C  dyz             118      3.937800   3 C  dyz       
   512     -3.584883  16 H  s               521      3.584889  17 H  s         
   316      3.257982   8 C  pz              359     -3.257975   9 C  pz        
   186      2.614958   5 C  py              229      2.614991   6 C  py        
   290      1.899911   7 C  dyz             204      1.859043   5 C  dyz       

 Vector   60  Occ=0.000000D+00  E= 1.885690D-01
              MO Center=  5.8D-06, -2.9D-06,  4.2D-01, r^2= 1.8D+01
   Bfn.  Coefficient  Atom+Function         Bfn.  Coefficient  Atom+Function  
  ----- ------------  ---------------      ----- ------------  ---------------
   476     11.948543  12 H  s               485    -11.948126  13 H  s         
   494      9.235577  14 H  s               503     -9.235555  15 H  s         
   177     -6.870234   5 C  s               220      6.870070   6 C  s         
    49      6.053946   2 C  s                92     -6.053231   3 C  s         
    48     -5.505838   2 C  s                91      5.505695   3 C  s         

 Vector   61  Occ=0.000000D+00  E= 1.901683D-01
              MO Center= -1.3D-05, -1.9D-06, -4.2D-01, r^2= 1.7D+01
   Bfn.  Coefficient  Atom+Function         Bfn.  Coefficient  Atom+Function  
  ----- ------------  ---------------      ----- ------------  ---------------
   135     14.764402   4 C  s                 6     11.803631   1 C  s         
   264     -9.197249   7 C  s               178     -8.249347   5 C  s         
   221     -8.249362   6 C  s               476     -4.867714  12 H  s         
   485     -4.867733  13 H  s               435      4.061994  11 N  s         
   273      3.998779   7 C  pz              436      3.941572  11 N  s         

 Vector   62  Occ=0.000000D+00  E= 1.957231D-01
              MO Center=  9.9D-06, -6.1D-07,  4.1D-01, r^2= 1.7D+01
   Bfn.  Coefficient  Atom+Function         Bfn.  Coefficient  Atom+Function  
  ----- ------------  ---------------      ----- ------------  ---------------
   331     -3.870400   8 C  dxz             374      3.870388   9 C  dxz       
   530     -3.793138  18 H  s               539      3.793118  19 H  s         
   548     -3.793115  20 H  s               557      3.793159  21 H  s         
   158      3.573744   4 C  dxy              29      3.058110   1 C  dxy       
   186     -2.910575   5 C  py              229      2.910554   6 C  py        

 Vector   63  Occ=0.000000D+00  E= 2.005127D-01
              MO Center=  5.0D-07, -1.4D-05,  1.9D+00, r^2= 1.5D+01
   Bfn.  Coefficient  Atom+Function         Bfn.  Coefficient  Atom+Function  
  ----- ------------  ---------------      ----- ------------  ---------------
    32      4.810556   1 C  dyz             315      4.758002   8 C  py        
   358      4.757991   9 C  py              419      3.788461  10 N  dyz       
   530      3.074478  18 H  s               539      3.074499  19 H  s         
   548     -3.074520  20 H  s               557     -3.074486  21 H  s         
   307      2.326421   8 C  s               350     -2.326402   9 C  s         

 Vector   64  Occ=0.000000D+00  E= 2.038744D-01
              MO Center=  1.9D-05,  1.0D-05, -2.4D+00, r^2= 2.4D+01
   Bfn.  Coefficient  Atom+Function         Bfn.  Coefficient  Atom+Function  
  ----- ------------  ---------------      ----- ------------  ---------------
   264     22.226120   7 C  s               436    -20.397802  11 N  s         
   135    -14.685938   4 C  s                49     11.384424   2 C  s         
    92     11.385133   3 C  s               291      8.212693   7 C  dzz       
     6     -7.275891   1 C  s               162      6.890714   4 C  dzz       
   178     -6.686149   5 C  s               221     -6.686667   6 C  s         

 Vector   65  Occ=0.000000D+00  E= 2.106328D-01
              MO Center=  1.9D-06,  4.7D-07,  2.4D+00, r^2= 1.6D+01
   Bfn.  Coefficient  Atom+Function         Bfn.  Coefficient  Atom+Function  
  ----- ------------  ---------------      ----- ------------  ---------------
   512     11.087020  16 H  s               521    -11.087181  17 H  s         
   316     -7.083154   8 C  pz              359      7.083220   9 C  pz        
   530     -5.049688  18 H  s               539     -5.049297  19 H  s         
   548      5.049624  20 H  s               557      5.049262  21 H  s         
   161      2.814437   4 C  dyz             518     -2.722525  16 H  pz        

 Vector   66  Occ=0.000000D+00  E= 2.111254D-01
              MO Center= -2.5D-05,  5.6D-06,  1.9D-01, r^2= 1.9D+01
   Bfn.  Coefficient  Atom+Function         Bfn.  Coefficient  Atom+Function  
  ----- ------------  ---------------      ----- ------------  ---------------
   494     15.539292  14 H  s               503    -15.539510  15 H  s         
   178      6.213492   5 C  s               221     -6.213258   6 C  s         
    30      5.653486   1 C  dxz             185     -5.581487   5 C  px        
   187      5.594999   5 C  pz              228     -5.581493   6 C  px        
   230     -5.595101   6 C  pz              202      5.249809   5 C  dxz       

 Vector   67  Occ=0.000000D+00  E= 2.222601D-01
              MO Center=  7.9D-07, -1.2D-05,  2.3D+00, r^2= 1.8D+01
   Bfn.  Coefficient  Atom+Function         Bfn.  Coefficient  Atom+Function  
  ----- ------------  ---------------      ----- ------------  ---------------
   393      8.957221  10 N  s               512     -8.676493  16 H  s         
   521     -8.676514  17 H  s               307     -7.502122   8 C  s         
   350     -7.502047   9 C  s               264      7.202717   7 C  s         
   291     -6.761755   7 C  dzz             162     -6.313501   4 C  dzz       
   306      6.034581   8 C  s               349      6.034573   9 C  s         

 Vector   68  Occ=0.000000D+00  E= 2.264111D-01
              MO Center= -3.9D-07,  3.4D-06, -2.5D+00, r^2= 1.2D+01
   Bfn.  Coefficient  Atom+Function         Bfn.  Coefficient  Atom+Function  
  ----- ------------  ---------------      ----- ------------  ---------------
   161      6.399944   4 C  dyz             290      4.923742   7 C  dyz       
   272      3.613928   7 C  py              512     -3.330934  16 H  s         
   521      3.330773  17 H  s               530      3.230195  18 H  s         
   539      3.230112  19 H  s               548     -3.230129  20 H  s         
   557     -3.230150  21 H  s               315      2.962368   8 C  py        

 Vector   69  Occ=0.000000D+00  E= 2.379776D-01
              MO Center= -2.4D-07,  5.0D-07, -4.3D-01, r^2= 1.6D+01
   Bfn.  Coefficient  Atom+Function         Bfn.  Coefficient  Atom+Function  
  ----- ------------  ---------------      ----- ------------  ---------------
     6     13.254826   1 C  s                49     -8.919088   2 C  s         
    92     -8.919146   3 C  s               135      7.963331   4 C  s         
   306     -6.213361   8 C  s               349     -6.213365   9 C  s         
   512      6.051732  16 H  s               521      6.051731  17 H  s         
   393     -5.325731  10 N  s               264      5.236619   7 C  s         

 Vector   70  Occ=0.000000D+00  E= 2.433471D-01
              MO Center= -5.0D-06,  1.0D-06,  2.0D+00, r^2= 1.7D+01
   Bfn.  Coefficient  Atom+Function         Bfn.  Coefficient  Atom+Function  
  ----- ------------  ---------------      ----- ------------  ---------------
   331      3.586942   8 C  dxz             374     -3.586934   9 C  dxz       
   516     -2.270156  16 H  px              525      2.270158  17 H  px        
   314      2.040817   8 C  px              357     -2.040859   9 C  px        
    29      1.794280   1 C  dxy              75     -1.560340   2 C  dyz       
   118      1.560344   3 C  dyz             536     -1.490347  18 H  pz        

 Vector   71  Occ=0.000000D+00  E= 2.449634D-01
              MO Center=  2.0D-06, -7.6D-06, -5.4D-01, r^2= 1.7D+01
   Bfn.  Coefficient  Atom+Function         Bfn.  Coefficient  Atom+Function  
  ----- ------------  ---------------      ----- ------------  ---------------
     6     27.423084   1 C  s                49    -10.396596   2 C  s         
    92    -10.396516   3 C  s               264      8.058549   7 C  s         
   393     -7.295123  10 N  s               494     -5.636004  14 H  s         
   503     -5.636223  15 H  s               306     -5.385788   8 C  s         
   349     -5.385799   9 C  s               291     -4.909690   7 C  dzz       

 Vector   72  Occ=0.000000D+00  E= 2.521086D-01
              MO Center= -1.1D-05, -4.2D-06,  4.9D-01, r^2= 1.7D+01
   Bfn.  Coefficient  Atom+Function         Bfn.  Coefficient  Atom+Function  
  ----- ------------  ---------------      ----- ------------  ---------------
   135     17.331070   4 C  s               264    -10.450594   7 C  s         
   494      6.816847  14 H  s               503      6.817505  15 H  s         
   436      6.683451  11 N  s               393      6.263018  10 N  s         
   162     -5.093995   4 C  dzz             157     -4.879526   4 C  dxx       
   291     -3.091620   7 C  dzz             185     -3.056006   5 C  px        

 Vector   73  Occ=0.000000D+00  E= 2.527921D-01
              MO Center=  6.3D-06, -5.9D-07, -1.0D+00, r^2= 1.9D+01
   Bfn.  Coefficient  Atom+Function         Bfn.  Coefficient  Atom+Function  
  ----- ------------  ---------------      ----- ------------  ---------------
    49      7.640463   2 C  s                92     -7.640412   3 C  s         
   159     -6.319302   4 C  dxz              71     -5.160030   2 C  dxx       
   114      5.159972   3 C  dxx             288     -5.082161   7 C  dxz       
   271     -4.430484   7 C  px              530     -4.340857  18 H  s         
   539      4.340973  19 H  s               548      4.340933  20 H  s         

 Vector   74  Occ=0.000000D+00  E= 2.546077D-01
              MO Center=  2.7D-06,  1.9D-05,  2.4D+00, r^2= 1.6D+01
   Bfn.  Coefficient  Atom+Function         Bfn.  Coefficient  Atom+Function  
  ----- ------------  ---------------      ----- ------------  ---------------
   307      8.079016   8 C  s               350     -8.079098   9 C  s         
   161     -3.663266   4 C  dyz             186      2.409395   5 C  py        
   229      2.409380   6 C  py              332     -2.333036   8 C  dyy       
   375      2.333064   9 C  dyy             334     -2.289342   8 C  dzz       
   377      2.289405   9 C  dzz             329     -2.134757   8 C  dxx       

 Vector   75  Occ=0.000000D+00  E= 2.636679D-01
              MO Center=  2.4D-06,  4.3D-06,  7.1D-01, r^2= 1.4D+01
   Bfn.  Coefficient  Atom+Function         Bfn.  Coefficient  Atom+Function  
  ----- ------------  ---------------      ----- ------------  ---------------
   512      3.954865  16 H  s               521     -3.954835  17 H  s         
   307     -2.850712   8 C  s               350      2.850720   9 C  s         
   316     -2.528958   8 C  pz              359      2.528956   9 C  pz        
   315      2.515079   8 C  py              358      2.515132   9 C  py        
    32      2.489404   1 C  dyz             143     -2.103198   4 C  py        

 Vector   76  Occ=0.000000D+00  E= 2.652881D-01
              MO Center= -5.6D-05, -2.2D-06, -1.1D+00, r^2= 1.7D+01
   Bfn.  Coefficient  Atom+Function         Bfn.  Coefficient  Atom+Function  
  ----- ------------  ---------------      ----- ------------  ---------------
   178     17.410804   5 C  s               221    -17.411279   6 C  s         
    49    -14.368842   2 C  s                92     14.369394   3 C  s         
   476    -12.363234  12 H  s               485     12.363648  13 H  s         
   159     11.753149   4 C  dxz             494      8.460028  14 H  s         
   503     -8.459489  15 H  s               142     -8.413786   4 C  px        

 Vector   77  Occ=0.000000D+00  E= 2.745258D-01
              MO Center=  3.0D-05, -1.7D-06,  1.9D+00, r^2= 1.8D+01
   Bfn.  Coefficient  Atom+Function         Bfn.  Coefficient  Atom+Function  
  ----- ------------  ---------------      ----- ------------  ---------------
   512     15.632011  16 H  s               521     15.632016  17 H  s         
   264     -9.660280   7 C  s               316     -9.324745   8 C  pz        
   359     -9.324748   9 C  pz              306     -8.042794   8 C  s         
   349     -8.042809   9 C  s               392     -8.061358  10 N  s         
   178      7.627287   5 C  s               221      7.626631   6 C  s         

 Vector   78  Occ=0.000000D+00  E= 2.747204D-01
              MO Center= -6.9D-07,  7.4D-07, -4.5D-01, r^2= 1.7D+01
   Bfn.  Coefficient  Atom+Function         Bfn.  Coefficient  Atom+Function  
  ----- ------------  ---------------      ----- ------------  ---------------
   314      3.588938   8 C  px              357     -3.588964   9 C  px        
   530     -3.188791  18 H  s               539      3.188701  19 H  s         
   548     -3.188800  20 H  s               557      3.188751  21 H  s         
   331     -3.119416   8 C  dxz             374      3.119412   9 C  dxz       
   158      2.971446   4 C  dxy              29      2.450202   1 C  dxy       

 Vector   79  Occ=0.000000D+00  E= 2.778631D-01
              MO Center= -7.2D-06,  9.7D-07,  2.6D-01, r^2= 1.8D+01
   Bfn.  Coefficient  Atom+Function         Bfn.  Coefficient  Atom+Function  
  ----- ------------  ---------------      ----- ------------  ---------------
    49     12.900175   2 C  s                92    -12.900380   3 C  s         
   476     10.327507  12 H  s               485    -10.327185  13 H  s         
    30     -8.627022   1 C  dxz             494     -7.332082  14 H  s         
   503      7.332150  15 H  s                13     -6.362940   1 C  px        
    73     -6.098950   2 C  dxz             116     -6.098932   3 C  dxz       

 Vector   80  Occ=0.000000D+00  E= 2.843757D-01
              MO Center=  1.6D-06,  4.4D-07,  7.0D-01, r^2= 1.6D+01
   Bfn.  Coefficient  Atom+Function         Bfn.  Coefficient  Atom+Function  
  ----- ------------  ---------------      ----- ------------  ---------------
   476    -10.631464  12 H  s               485    -10.631491  13 H  s         
     6     10.544731   1 C  s               494    -10.503270  14 H  s         
   503    -10.503311  15 H  s               162      7.170700   4 C  dzz       
   291      7.053614   7 C  dzz               5      6.842669   1 C  s         
    48      5.972058   2 C  s                91      5.972078   3 C  s         

 Vector   81  Occ=0.000000D+00  E= 2.913864D-01
              MO Center=  6.8D-06,  2.9D-06,  2.4D+00, r^2= 1.4D+01
   Bfn.  Coefficient  Atom+Function         Bfn.  Coefficient  Atom+Function  
  ----- ------------  ---------------      ----- ------------  ---------------
   512     11.448630  16 H  s               521     11.447521  17 H  s         
   393      9.189419  10 N  s               316     -8.637837   8 C  pz        
   359     -8.637384   9 C  pz              476      6.718976  12 H  s         
   485      6.718886  13 H  s               435      6.666568  11 N  s         
   392     -5.953688  10 N  s               530     -4.930462  18 H  s         

 Vector   82  Occ=0.000000D+00  E= 2.918051D-01
              MO Center= -1.8D-07, -1.2D-05,  4.3D-01, r^2= 1.6D+01
   Bfn.  Coefficient  Atom+Function         Bfn.  Coefficient  Atom+Function  
  ----- ------------  ---------------      ----- ------------  ---------------
   512      5.639278  16 H  s               521     -5.641267  17 H  s         
   530     -5.343730  18 H  s               539     -5.343718  19 H  s         
   548      5.344558  20 H  s               557      5.344570  21 H  s         
   161      4.441570   4 C  dyz             315     -4.324270   8 C  py        
   358     -4.324675   9 C  py              334     -3.870319   8 C  dzz       

 Vector   83  Occ=0.000000D+00  E= 3.008681D-01
              MO Center=  5.1D-05,  6.2D-07,  6.1D-01, r^2= 1.7D+01
   Bfn.  Coefficient  Atom+Function         Bfn.  Coefficient  Atom+Function  
  ----- ------------  ---------------      ----- ------------  ---------------
   135     18.177873   4 C  s               178    -13.993616   5 C  s         
   221    -13.993686   6 C  s                49     12.204490   2 C  s         
    92     12.204195   3 C  s               476    -10.414052  12 H  s         
   485    -10.414442  13 H  s               162      6.269436   4 C  dzz       
    58      4.818729   2 C  pz              101      4.818836   3 C  pz        

 Vector   84  Occ=0.000000D+00  E= 3.021882D-01
              MO Center= -9.8D-05, -2.3D-05, -3.3D-01, r^2= 1.8D+01
   Bfn.  Coefficient  Atom+Function         Bfn.  Coefficient  Atom+Function  
  ----- ------------  ---------------      ----- ------------  ---------------
   494      9.386161  14 H  s               503     -9.386356  15 H  s         
   530     -8.757244  18 H  s               539      8.757213  19 H  s         
   548      8.756912  20 H  s               557     -8.756882  21 H  s         
    30      6.694020   1 C  dxz             314      6.527286   8 C  px        
   357      6.527006   9 C  px              185     -5.365971   5 C  px        

 Vector   85  Occ=0.000000D+00  E= 3.043863D-01
              MO Center= -2.6D-06,  1.7D-05,  5.7D-01, r^2= 1.7D+01
   Bfn.  Coefficient  Atom+Function         Bfn.  Coefficient  Atom+Function  
  ----- ------------  ---------------      ----- ------------  ---------------
[...]
     Transition Moments   XX -0.00014  XY -0.08175  XZ  0.00005
     Transition Moments   YY  0.00020  YZ -0.00003  ZZ  0.00044
     Dipole Oscillator Strength                    0.0000000065
     Electric Quadrupole                           0.0000000001
     Magnetic Dipole                               0.0000002400
     Total Oscillator Strength                     0.0000002466

     Occ.   39  a   ---  Virt.   40  a        0.96100
     Occ.   39  a   ---  Virt.   52  a       -0.21785
     Occ.   39  a   ---  Virt.   57  a        0.07073
     Occ.   39  a   ---  Virt.   59  a       -0.09913
     Occ.   39  a   ---  Virt.   68  a        0.07114
  ----------------------------------------------------------------------------
  Root   2 singlet a              0.163997357 a.u.                4.4626 eV 
  ----------------------------------------------------------------------------
     Transition Moments    X -0.00002   Y -0.01904   Z -0.00015
     Transition Moments   XX  0.00018  XY -0.00000  XZ -0.00012
     Transition Moments   YY -0.00013  YZ  0.14560  ZZ -0.00062
     Dipole Oscillator Strength                    0.0000396428
     Electric Quadrupole                           0.0000000005
     Magnetic Dipole                               0.0000001477
     Total Oscillator Strength                     0.0000397910

     Occ.   33  a   ---  Virt.   41  a        0.05512
     Occ.   39  a   ---  Virt.   41  a       -0.99402
  ----------------------------------------------------------------------------
  Root   3 singlet a              0.188040696 a.u.                5.1168 eV 
  ----------------------------------------------------------------------------
     Transition Moments    X  0.27165   Y  0.00000   Z -0.00003
     Transition Moments   XX -0.00005  XY -0.00005  XZ  1.87702
     Transition Moments   YY -0.00005  YZ -0.00013  ZZ -0.00018
     Dipole Oscillator Strength                    0.0092510478
     Electric Quadrupole                           0.0000001247
     Magnetic Dipole                               0.0000004821
     Total Oscillator Strength                     0.0092516546

     Occ.   37  a   ---  Virt.   40  a       -0.13736
     Occ.   38  a   ---  Virt.   41  a       -0.13049
     Occ.   39  a   ---  Virt.   42  a       -0.90151
     Occ.   39  a   ---  Virt.   43  a        0.25088
     Occ.   39  a   ---  Virt.   46  a       -0.05392
     Occ.   39  a   ---  Virt.   51  a        0.21887
     Occ.   39  a   ---  Virt.   56  a        0.12580
     Occ.   39  a   ---  Virt.   67  a        0.09003
  ----------------------------------------------------------------------------
  Root   4 singlet a              0.191076506 a.u.                5.1995 eV 
  ----------------------------------------------------------------------------
     Transition Moments    X -0.23639   Y  0.00002   Z -0.00002
     Transition Moments   XX -0.00005  XY  0.00001  XZ  0.07842
     Transition Moments   YY -0.00001  YZ -0.00011  ZZ  0.00010
     Dipole Oscillator Strength                    0.0071180418
     Electric Quadrupole                           0.0000000002
     Magnetic Dipole                               0.0000000772
     Total Oscillator Strength                     0.0071181193

     Occ.   29  a   ---  Virt.   41  a        0.05793
     Occ.   35  a   ---  Virt.   41  a        0.08053
     Occ.   37  a   ---  Virt.   40  a       -0.72092
     Occ.   37  a   ---  Virt.   52  a        0.05110
     Occ.   37  a   ---  Virt.   57  a       -0.05425
     Occ.   38  a   ---  Virt.   41  a       -0.64795
     Occ.   39  a   ---  Virt.   42  a        0.17423
     Occ.   39  a   ---  Virt.   43  a       -0.06011
  ----------------------------------------------------------------------------
  Root   5 singlet a              0.217089498 a.u.                5.9073 eV 
  ----------------------------------------------------------------------------
     Transition Moments    X -0.00001   Y  0.00000   Z -1.60820
     Transition Moments   XX -0.73839  XY  0.00005  XZ -0.00003
     Transition Moments   YY -0.77093  YZ -0.00001  ZZ  7.05541
     Dipole Oscillator Strength                    0.3743060656
     Electric Quadrupole                           0.0000011077
     Magnetic Dipole                               0.0000000000
     Total Oscillator Strength                     0.3743071734

     Occ.   35  a   ---  Virt.   52  a        0.05480
     Occ.   36  a   ---  Virt.   47  a       -0.12292
     Occ.   36  a   ---  Virt.   49  a       -0.08952
     Occ.   37  a   ---  Virt.   41  a       -0.34330
     Occ.   38  a   ---  Virt.   40  a        0.90447
     Occ.   39  a   ---  Virt.   44  a       -0.06426
  ----------------------------------------------------------------------------
  Root   6 singlet a              0.224287168 a.u.                6.1032 eV 
  ----------------------------------------------------------------------------
     Transition Moments    X -0.00001   Y -0.00002   Z  0.00001
     Transition Moments   XX  0.00007  XY  2.71429  XZ -0.00005
     Transition Moments   YY -0.00009  YZ -0.00011  ZZ -0.00040
     Dipole Oscillator Strength                    0.0000000001
     Electric Quadrupole                           0.0000004426
     Magnetic Dipole                               0.0000005369
     Total Oscillator Strength                     0.0000009796

     Occ.   30  a   ---  Virt.   42  a       -0.06359
     Occ.   39  a   ---  Virt.   45  a       -0.97677
     Occ.   39  a   ---  Virt.   52  a        0.07817
     Occ.   39  a   ---  Virt.   57  a        0.08410
     Occ.   39  a   ---  Virt.   63  a        0.05883
     Occ.   39  a   ---  Virt.   74  a        0.12680
  ----------------------------------------------------------------------------
  Root   7 singlet a              0.230340290 a.u.                6.2679 eV 
  ----------------------------------------------------------------------------
     Transition Moments    X -0.00001   Y -0.00001   Z -0.04559
     Transition Moments   XX  0.73743  XY  0.00013  XZ -0.00000
     Transition Moments   YY  1.44967  YZ -0.00008  ZZ  0.18785
     Dipole Oscillator Strength                    0.0003191733
     Electric Quadrupole                           0.0000000260
     Magnetic Dipole                               0.0000000000
     Total Oscillator Strength                     0.0003191993

     Occ.   37  a   ---  Virt.   41  a       -0.05102
     Occ.   38  a   ---  Virt.   40  a        0.05127
     Occ.   39  a   ---  Virt.   44  a        0.86372
     Occ.   39  a   ---  Virt.   47  a       -0.35307
     Occ.   39  a   ---  Virt.   49  a        0.27064
     Occ.   39  a   ---  Virt.   54  a       -0.07872
     Occ.   39  a   ---  Virt.   58  a        0.09057
     Occ.   39  a   ---  Virt.   60  a       -0.11925
     Occ.   39  a   ---  Virt.   66  a        0.06948
     Occ.   39  a   ---  Virt.   73  a       -0.09672
  ----------------------------------------------------------------------------
  Root   8 singlet a              0.234496538 a.u.                6.3810 eV 
  ----------------------------------------------------------------------------
     Transition Moments    X -0.05742   Y -0.00003   Z -0.00004
     Transition Moments   XX  0.00006  XY  0.00001  XZ  0.82551
     Transition Moments   YY -0.00001  YZ -0.00014  ZZ -0.00029
     Dipole Oscillator Strength                    0.0005153745
     Electric Quadrupole                           0.0000000468
     Magnetic Dipole                               0.0000000045
     Total Oscillator Strength                     0.0005154257

     Occ.   39  a   ---  Virt.   42  a        0.16690
     Occ.   39  a   ---  Virt.   43  a        0.74401
     Occ.   39  a   ---  Virt.   46  a        0.49747
     Occ.   39  a   ---  Virt.   48  a       -0.29436
     Occ.   39  a   ---  Virt.   50  a       -0.24028
     Occ.   39  a   ---  Virt.   61  a       -0.05510
     Occ.   39  a   ---  Virt.   72  a        0.05137
     Occ.   39  a   ---  Virt.   81  a        0.05817

              Target root =      1
          Target symmetry = none
      Ground state energy =   -458.171411642868
        Excitation energy =      0.136879948156
     Excited state energy =   -458.034531694711

  stored tddft:energy   -458.03453169471146     

    8 smallest eigenvalue differences (eV) 
--------------------------------------------------------
  No. Spin  Occ  Vir  Irrep   E(Occ)    E(Vir)   E(Diff)
--------------------------------------------------------
    1    1   39   40 a        -0.291     0.005     8.045
    2    1   39   41 a        -0.291     0.031     8.757
    3    1   39   42 a        -0.291     0.041     9.031
    4    1   39   43 a        -0.291     0.062     9.587
    5    1   38   40 a        -0.348     0.005     9.615
    6    1   39   44 a        -0.291     0.069     9.796
    7    1   39   45 a        -0.291     0.070     9.798
    8    1   37   40 a        -0.365     0.005    10.080
--------------------------------------------------------

  Entering Davidson iterations
  Restricted triplet excited states

  Iter   NTrls   NConv    DeltaV     DeltaE      Time   
  ----  ------  ------  ---------  ---------  --------- 
    1      8       0     0.66E-01   0.10+100      583.6
    2     16       0     0.20E-01   0.13E-01      570.6
    3     24       0     0.21E+00   0.40E-02      523.1
    4     32       0     0.78E-01   0.42E-01      521.0
    5     40       0     0.21E-01   0.40E-02      522.5
    6     48       2     0.86E-02   0.46E-03      521.9
    7     54       2     0.42E-02   0.81E-04      478.2
    8     60       3     0.94E-03   0.11E-04      477.5
    9     65       5     0.60E-03   0.11E-05      453.4
   10     68       6     0.17E-03   0.16E-06      403.3
   11     70       7     0.10E-03   0.28E-07      379.6
   12     71       8     0.80E-04   0.63E-08      354.9
  ----  ------  ------  ---------  ---------  --------- 
  Convergence criterion met

  Ground state a        -458.171411642868 a.u.

  ----------------------------------------------------------------------------
  Root   1 triplet a              0.135370171 a.u.                3.6836 eV 
  ----------------------------------------------------------------------------
     Transition Moments                    Spin forbidden
     Oscillator Strength                   Spin forbidden

     Occ.   33  a   ---  Virt.   40  a       -0.05280
     Occ.   39  a   ---  Virt.   40  a        0.95874
     Occ.   39  a   ---  Virt.   52  a       -0.22211
     Occ.   39  a   ---  Virt.   57  a        0.07015
     Occ.   39  a   ---  Virt.   59  a       -0.10193
     Occ.   39  a   ---  Virt.   68  a        0.07355
  ----------------------------------------------------------------------------
  Root   2 triplet a              0.138973495 a.u.                3.7817 eV 
  ----------------------------------------------------------------------------
     Transition Moments                    Spin forbidden
     Oscillator Strength                   Spin forbidden

     Occ.   29  a   ---  Virt.   40  a       -0.07267
     Occ.   29  a   ---  Virt.   68  a        0.05290
     Occ.   35  a   ---  Virt.   52  a        0.12774
     Occ.   35  a   ---  Virt.   57  a       -0.06521
     Occ.   37  a   ---  Virt.   41  a       -0.35316
     Occ.   38  a   ---  Virt.   40  a        0.90507
     Occ.   38  a   ---  Virt.   57  a        0.05057
  ----------------------------------------------------------------------------
  Root   3 triplet a              0.160829468 a.u.                4.3764 eV 
  ----------------------------------------------------------------------------
     Transition Moments                    Spin forbidden
     Oscillator Strength                   Spin forbidden

     Occ.   33  a   ---  Virt.   41  a       -0.07362
     Occ.   39  a   ---  Virt.   41  a        0.99169
  ----------------------------------------------------------------------------
  Root   4 triplet a              0.165578900 a.u.                4.5056 eV 
  ----------------------------------------------------------------------------
     Transition Moments                    Spin forbidden
     Oscillator Strength                   Spin forbidden

     Occ.   29  a   ---  Virt.   41  a       -0.05155
     Occ.   37  a   ---  Virt.   40  a       -0.93266
     Occ.   37  a   ---  Virt.   52  a        0.05701
     Occ.   37  a   ---  Virt.   57  a       -0.09313
     Occ.   38  a   ---  Virt.   41  a        0.32325
  ----------------------------------------------------------------------------
  Root   5 triplet a              0.170408383 a.u.                4.6370 eV 
  ----------------------------------------------------------------------------
     Transition Moments                    Spin forbidden
     Oscillator Strength                   Spin forbidden

     Occ.   37  a   ---  Virt.   41  a       -0.91793
     Occ.   37  a   ---  Virt.   53  a        0.05064
     Occ.   37  a   ---  Virt.   70  a       -0.06070
     Occ.   38  a   ---  Virt.   40  a       -0.36786
  ----------------------------------------------------------------------------
  Root   6 triplet a              0.180591290 a.u.                4.9141 eV 
  ----------------------------------------------------------------------------
     Transition Moments                    Spin forbidden
     Oscillator Strength                   Spin forbidden

     Occ.   35  a   ---  Virt.   41  a        0.17200
     Occ.   37  a   ---  Virt.   40  a       -0.32601
     Occ.   38  a   ---  Virt.   41  a       -0.92105
  ----------------------------------------------------------------------------
  Root   7 triplet a              0.185144932 a.u.                5.0381 eV 
  ----------------------------------------------------------------------------
     Transition Moments                    Spin forbidden
     Oscillator Strength                   Spin forbidden

     Occ.   30  a   ---  Virt.   45  a       -0.05710
     Occ.   39  a   ---  Virt.   42  a       -0.91333
     Occ.   39  a   ---  Virt.   43  a        0.26596
     Occ.   39  a   ---  Virt.   46  a       -0.05719
     Occ.   39  a   ---  Virt.   51  a        0.20602
     Occ.   39  a   ---  Virt.   56  a        0.13765
     Occ.   39  a   ---  Virt.   67  a        0.12100
  ----------------------------------------------------------------------------
  Root   8 triplet a              0.220842021 a.u.                6.0094 eV 
  ----------------------------------------------------------------------------
     Transition Moments                    Spin forbidden
     Oscillator Strength                   Spin forbidden

     Occ.   30  a   ---  Virt.   42  a        0.08335
     Occ.   39  a   ---  Virt.   45  a        0.96899
     Occ.   39  a   ---  Virt.   52  a       -0.07621
     Occ.   39  a   ---  Virt.   57  a       -0.09167
     Occ.   39  a   ---  Virt.   63  a       -0.07231
     Occ.   39  a   ---  Virt.   74  a       -0.14351

              Target root =      1
          Target symmetry = none
      Ground state energy =   -458.171411642868
        Excitation energy =      0.135370171225
     Excited state energy =   -458.036041471643

  stored tddft:energy   -458.03604147164293     

 Task  times  cpu:    12325.7s     wall:    14502.2s


                                NWChem Input Module
                                -------------------


 Summary of allocated global arrays
-----------------------------------
  No active global arrays


MA_summarize_allocated_blocks: starting scan ...
heap block 'gridpts', handle 108, address 0x13583cf0:
	type of elements:		double precision
	number of elements:		5242755220
	address of client space:	0x13583d80
	index for client space:		12411655
	total number of bytes:		41942041912
MA_summarize_allocated_blocks: scan completed: 1 heap block, 0 stack blocks
MA usage statistics:

	allocation statistics:
					      heap	     stack
					      ----	     -----
	current number of blocks	         1	         0
	maximum number of blocks	        18	        53
	current total bytes		41942041912	         0
	maximum total bytes		41944431424	  48684904
	maximum total K-bytes		  41944432	     48685
	maximum total M-bytes		     41945	        49


                                     CITATION
                                     --------
                Please cite the following reference when publishing
                           results obtained with NWChem:

          E. Apra, E. J. Bylaska, W. A. de Jong, N. Govind, K. Kowalski,
       T. P. Straatsma, M. Valiev, H. J. J. van Dam, Y. Alexeev, J. Anchell,
       V. Anisimov, F. W. Aquino, R. Atta-Fynn, J. Autschbach, N. P. Bauman,
     J. C. Becca, D. E. Bernholdt, K. Bhaskaran-Nair, S. Bogatko, P. Borowski,
         J. Boschen, J. Brabec, A. Bruner, E. Cauet, Y. Chen, G. N. Chuev,
      C. J. Cramer, J. Daily, M. J. O. Deegan, T. H. Dunning Jr., M. Dupuis,
   K. G. Dyall, G. I. Fann, S. A. Fischer, A. Fonari, H. Fruchtl, L. Gagliardi,
      J. Garza, N. Gawande, S. Ghosh, K. Glaesemann, A. W. Gotz, J. Hammond,
       V. Helms, E. D. Hermes, K. Hirao, S. Hirata, M. Jacquelin, L. Jensen,
   B. G. Johnson, H. Jonsson, R. A. Kendall, M. Klemm, R. Kobayashi, V. Konkov,
      S. Krishnamoorthy, M. Krishnan, Z. Lin, R. D. Lins, R. J. Littlefield,
      A. J. Logsdail, K. Lopata, W. Ma, A. V. Marenich, J. Martin del Campo,
   D. Mejia-Rodriguez, J. E. Moore, J. M. Mullin, T. Nakajima, D. R. Nascimento,
    J. A. Nichols, P. J. Nichols, J. Nieplocha, A. Otero-de-la-Roza, B. Palmer,
    A. Panyala, T. Pirojsirikul, B. Peng, R. Peverati, J. Pittner, L. Pollack,
   R. M. Richard, P. Sadayappan, G. C. Schatz, W. A. Shelton, D. W. Silverstein,
   D. M. A. Smith, T. A. Soares, D. Song, M. Swart, H. L. Taylor, G. S. Thomas,
            V. Tipparaju, D. G. Truhlar, K. Tsemekhman, T. Van Voorhis,
      A. Vazquez-Mayagoitia, P. Verma, O. Villa, A. Vishnu, K. D. Vogiatzis,
        D. Wang, J. H. Weare, M. J. Williamson, T. L. Windus, K. Wolinski,
        A. T. Wong, Q. Wu, C. Yang, Q. Yu, M. Zacharias, Z. Zhang, Y. Zhao,
                                and R. J. Harrison
                        "NWChem: Past, present, and future
                         J. Chem. Phys. 152, 184102 (2020)
                               doi:10.1063/5.0004997

                                      AUTHORS
                                      -------
  E. Apra, E. J. Bylaska, N. Govind, K. Kowalski, M. Valiev, D. Mejia-Rodriguez,
       A. Kunitsa, N. P. Bauman, A. Panyala, W. A. de Jong, T. P. Straatsma,
   H. J. J. van Dam, D. Wang, T. L. Windus, J. Hammond, J. Autschbach, A. Woods,
    K. Bhaskaran-Nair, J. Brabec, K. Lopata, S. A. Fischer, S. Krishnamoorthy,
     M. Jacquelin, W. Ma, M. Klemm, O. Villa, Y. Chen, V. Anisimov, F. Aquino,
     S. Hirata, M. T. Hackler, E. Hermes, L. Jensen, J. E. Moore, J. C. Becca,
      V. Konjkov, T. Risthaus, M. Malagoli, A. Marenich, A. Otero-de-la-Roza,
        J. Mullin, P. Nichols, R. Peverati, J. Pittner, Y. Zhao, P.-D. Fan,
        A. Fonari, M. J. Williamson, R. J. Harrison, J. R. Rehr, M. Dupuis,
     D. Silverstein, D. M. A. Smith, J. Nieplocha, V. Tipparaju, M. Krishnan,
     B. E. Van Kuiken, A. Vazquez-Mayagoitia, M. Swart, Q. Wu, T. Van Voorhis,
     A. A. Auer, M. Nooijen, L. D. Crosby, E. Brown, G. Cisneros, G. I. Fann,
   H. Fruchtl, J. Garza, K. Hirao, R. A. Kendall, J. A. Nichols, K. Tsemekhman,
    K. Wolinski, J. Anchell, D. E. Bernholdt, P. Borowski, T. Clark, D. Clerc,
   H. Dachsel, M. J. O. Deegan, K. Dyall, D. Elwood, E. Glendening, M. Gutowski,
   A. C. Hess, J. Jaffe, B. G. Johnson, J. Ju, R. Kobayashi, R. Kutteh, Z. Lin,
   R. Littlefield, X. Long, B. Meng, T. Nakajima, S. Niu, L. Pollack, M. Rosing,
   K. Glaesemann, G. Sandrone, M. Stave, H. Taylor, G. Thomas, J. H. van Lenthe,
                               A. T. Wong, Z. Zhang.

 Total times  cpu:    12325.7s     wall:    14502.7s
