 argument  1 = /home/aditisingh4812/nw_chem/nwchem-run/nwchem-run/tddft/open/open_atom/geom-MOL-0.4/al.nw
                                         
                                         


             Northwest Computational Chemistry Package (NWChem) 7.2.3
             --------------------------------------------------------


                    Environmental Molecular Sciences Laboratory
                       Pacific Northwest National Laboratory
                                Richland, WA 99352

                              Copyright (c) 1994-2022
                       Pacific Northwest National Laboratory
                            Battelle Memorial Institute

             NWChem is an open-source computational chemistry package
                        distributed under the terms of the
                      Educational Community License (ECL) 2.0
             A copy of the license is included with this distribution
                              in the LICENSE.TXT file

                                  ACKNOWLEDGMENT
                                  --------------

            This software and its documentation were developed at the
            EMSL at Pacific Northwest National Laboratory, a multiprogram
            national laboratory, operated for the U.S. Department of Energy
            by Battelle under Contract Number DE-AC05-76RL01830. Support
            for this work was provided by the Department of Energy Office
            of Biological and Environmental Research, Office of Basic
            Energy Sciences, and the Office of Advanced Scientific Computing.


           Job information
           ---------------

    hostname        = p17
    program         = /home/aditisingh4812/nw_chem/nwchem-7.2.3-release.revision-d690e065-srconly.2024-08-27/nwchem-7.2.3/bin/LINUX64/nwchem
    date            = Thu Apr 24 11:05:36 2025

    compiled        = Mon_Apr_07_18:51:54_2025
    source          = /home/aditisingh4812/nw_chem/nwchem-7.2.3-release.revision-d690e065-srconly.2024-08-27/nwchem-7.2.3
    nwchem branch   = 7.2.3
    nwchem revision = d690e065
    ga revision     = 5.8.0
    use scalapack   = F
    input           = /home/aditisingh4812/nw_chem/nwchem-run/nwchem-run/tddft/open/open_atom/geom-MOL-0.4/al.nw
    prefix          = al.
    data base       = ./al.db
    status          = startup
    nproc           =        8
    time left       =     -1s



           Memory information
           ------------------

    heap     = 2621440000 doubles =  20000.0 Mbytes
    stack    = 2621439997 doubles =  20000.0 Mbytes
    global   = 6553600000 doubles =  50000.0 Mbytes (distinct from heap & stack)
    total    = ********** doubles =  90000.0 Mbytes
    verify   = yes
    hardfail = no 


           Directory information
           ---------------------

  0 permanent = .
  0 scratch   = .




                                NWChem Input Module
                                -------------------



 Scaling coordinates for geometry "geometry" by  1.889725989
 (inverse scale =  0.529177249)



                             Geometry "geometry" -> ""
                             -------------------------

 Output coordinates in angstroms (scale by  1.889725989 to convert to a.u.)

  No.       Tag          Charge          X              Y              Z
 ---- ---------------- ---------- -------------- -------------- --------------
    1 Al                  13.0000     0.00000000     0.00000000     0.00000000

      Atomic Mass 
      ----------- 

      Al                26.981540


 Effective nuclear repulsion energy (a.u.)       0.0000000000

            Nuclear Dipole moment (a.u.) 
            ----------------------------
        X                 Y               Z
 ---------------- ---------------- ----------------
     0.0000000000     0.0000000000     0.0000000000


            XYZ format geometry
            -------------------
     1
 geometry
 Al                    0.00000000     0.00000000     0.00000000



 Summary of "ao basis" -> "" (cartesian)
 ------------------------------------------------------------------------------
       Tag                 Description            Shells   Functions and Types
 ---------------- ------------------------------  ------  ---------------------
 *                        aug-cc-pVTZ                 on all atoms 


  pbe96 is a nonlocal functional; adding pw91lda local functional. 

                                 NWChem DFT Module
                                 -----------------


                      Basis "ao basis" -> "ao basis" (cartesian)
                      -----
  Al (Aluminium)
  --------------
            Exponent  Coefficients 
       -------------- ---------------------------------------------------------
  1 S  2.05500000E+05  0.000068
  1 S  3.07800000E+04  0.000527
  1 S  7.00600000E+03  0.002762
  1 S  1.98500000E+03  0.011473
  1 S  6.49100000E+02  0.039819
  1 S  2.35000000E+02  0.115040
  1 S  9.16200000E+01  0.260887
  1 S  3.76700000E+01  0.396386
  1 S  1.59100000E+01  0.284597
  1 S  5.85000000E+00  0.044458
  1 S  2.54200000E+00 -0.004898
  1 S  1.05700000E+00  0.002613
  1 S  1.45500000E-01  0.000722

  2 S  2.05500000E+05 -0.000018
  2 S  3.07800000E+04 -0.000137
  2 S  7.00600000E+03 -0.000719
  2 S  1.98500000E+03 -0.003011
  2 S  6.49100000E+02 -0.010601
  2 S  2.35000000E+02 -0.032135
  2 S  9.16200000E+01 -0.080316
  2 S  3.76700000E+01 -0.156794
  2 S  1.59100000E+01 -0.168376
  2 S  5.85000000E+00  0.126879
  2 S  2.54200000E+00  0.561494
  2 S  1.05700000E+00  0.436613
  2 S  1.45500000E-01 -0.011456

  3 S  2.05500000E+05  0.000004
  3 S  3.07800000E+04  0.000032
  3 S  7.00600000E+03  0.000166
  3 S  1.98500000E+03  0.000695
  3 S  6.49100000E+02  0.002455
  3 S  2.35000000E+02  0.007446
  3 S  9.16200000E+01  0.018825
  3 S  3.76700000E+01  0.037277
  3 S  1.59100000E+01  0.041950
  3 S  5.85000000E+00 -0.035438
  3 S  2.54200000E+00 -0.175132
  3 S  1.05700000E+00 -0.276203
  3 S  1.45500000E-01  0.652809

  4 S  2.93100000E-01  1.000000

  5 S  5.65000000E-02  1.000000

  6 S  2.21000000E-02  1.000000

  7 P  4.44400000E+02  0.001628
  7 P  1.05100000E+02  0.013069
  7 P  3.34700000E+01  0.061234
  7 P  1.23300000E+01  0.187870
  7 P  4.86900000E+00  0.360452
  7 P  1.96100000E+00  0.408454
  7 P  1.88800000E-01  0.009765

  8 P  4.44400000E+02 -0.000286
  8 P  1.05100000E+02 -0.002423
  8 P  3.34700000E+01 -0.010866
  8 P  1.23300000E+01 -0.036431
  8 P  4.86900000E+00 -0.064107
  8 P  1.96100000E+00 -0.097224
  8 P  1.88800000E-01  0.503448

  9 P  7.83400000E-01  1.000000

 10 P  5.55700000E-02  1.000000

 11 P  1.46000000E-02  1.000000

 12 D  1.09000000E-01  1.000000

 13 D  3.33000000E-01  1.000000

 14 D  3.56000000E-02  1.000000

 15 F  2.44000000E-01  1.000000

 16 F  8.58000000E-02  1.000000



 Summary of "ao basis" -> "ao basis" (cartesian)
 ------------------------------------------------------------------------------
       Tag                 Description            Shells   Functions and Types
 ---------------- ------------------------------  ------  ---------------------
 Al                       aug-cc-pVTZ               16       59   6s5p3d2f




 Summary of "ao basis" -> "ao basis" (cartesian)
 ------------------------------------------------------------------------------
       Tag                 Description            Shells   Functions and Types
 ---------------- ------------------------------  ------  ---------------------
 Al                       aug-cc-pVTZ               16       59   6s5p3d2f




                         Geometry "geometry" -> "geometry"
                         ---------------------------------

 Output coordinates in angstroms (scale by  1.889725989 to convert to a.u.)

  No.       Tag          Charge          X              Y              Z
 ---- ---------------- ---------- -------------- -------------- --------------
    1 Al                  13.0000     0.00000000     0.00000000     0.00000000

      Atomic Mass 
      ----------- 

      Al                26.981540


 Effective nuclear repulsion energy (a.u.)       0.0000000000

            Nuclear Dipole moment (a.u.) 
            ----------------------------
        X                 Y               Z
 ---------------- ---------------- ----------------
     0.0000000000     0.0000000000     0.0000000000


                      Basis "ao basis" -> "ao basis" (cartesian)
                      -----
  Al (Aluminium)
  --------------
            Exponent  Coefficients 
       -------------- ---------------------------------------------------------
  1 S  2.05500000E+05  0.466915
  1 S  3.07800000E+04  0.872969
  1 S  7.00600000E+03  1.507283
  1 S  1.98500000E+03  2.431384
  1 S  6.49100000E+02  3.649099
  1 S  2.35000000E+02  4.920549
  1 S  9.16200000E+01  5.505654
  1 S  3.76700000E+01  4.295155
  1 S  1.59100000E+01  1.615648
  1 S  5.85000000E+00  0.119175
  1 S  2.54200000E+00 -0.007027
  1 S  1.05700000E+00  0.001941
  1 S  1.45500000E-01  0.000121

  2 S  2.05500000E+05 -0.124072
  2 S  3.07800000E+04 -0.232360
  2 S  7.00600000E+03 -0.401235
  2 S  1.98500000E+03 -0.652709
  2 S  6.49100000E+02 -0.993617
  2 S  2.35000000E+02 -1.405706
  2 S  9.16200000E+01 -1.733463
  2 S  3.76700000E+01 -1.737594
  2 S  1.59100000E+01 -0.977586
  2 S  5.85000000E+00  0.347839
  2 S  2.54200000E+00  0.823851
  2 S  1.05700000E+00  0.331723
  2 S  1.45500000E-01 -0.001967

  3 S  2.05500000E+05  0.046769
  3 S  3.07800000E+04  0.087515
  3 S  7.00600000E+03  0.151332
  3 S  1.98500000E+03  0.245876
  3 S  6.49100000E+02  0.375596
  3 S  2.35000000E+02  0.531666
  3 S  9.16200000E+01  0.663209
  3 S  3.76700000E+01  0.674304
  3 S  1.59100000E+01  0.397554
  3 S  5.85000000E+00 -0.158579
  3 S  2.54200000E+00 -0.419434
  3 S  1.05700000E+00 -0.342532
  3 S  1.45500000E-01  0.182957

  4 S  2.93100000E-01  0.283904

  5 S  5.65000000E-02  0.082594

  6 S  2.21000000E-02  0.040851

  7 P  4.44400000E+02  5.371468
  7 P  1.05100000E+02  7.112040
  7 P  3.34700000E+01  7.972075
  7 P  1.23300000E+01  7.019718
  7 P  4.86900000E+00  4.216048
  7 P  1.96100000E+00  1.532846
  7 P  1.88800000E-01  0.001965

  8 P  4.44400000E+02 -1.647233
  8 P  1.05100000E+02 -2.298927
  8 P  3.34700000E+01 -2.466240
  8 P  1.23300000E+01 -2.373151
  8 P  4.86900000E+00 -1.307260
  8 P  1.96100000E+00 -0.636098
  8 P  1.88800000E-01  0.176649

  9 P  7.83400000E-01  1.050557

 10 P  5.55700000E-02  0.038458

 11 P  1.46000000E-02  0.007234

 12 D  1.09000000E-01  0.034033

 13 D  3.33000000E-01  0.240263

 14 D  3.56000000E-02  0.004802

 15 F  2.44000000E-01  0.061600

 16 F  8.58000000E-02  0.005865



    Basis function labels
    ---------------------
       No.  Atm El Type
       ---  --- -- ----
        1    1 Al s          
        2    1 Al s          
        3    1 Al s          
        4    1 Al s          
        5    1 Al s          
        6    1 Al s          
        7    1 Al px         
        8    1 Al py         
        9    1 Al pz         
       10    1 Al px         
       11    1 Al py         
       12    1 Al pz         
       13    1 Al px         
       14    1 Al py         
       15    1 Al pz         
       16    1 Al px         
       17    1 Al py         
       18    1 Al pz         
       19    1 Al px         
       20    1 Al py         
       21    1 Al pz         
       22    1 Al dxx        
       23    1 Al dxy        
       24    1 Al dxz        
       25    1 Al dyy        
       26    1 Al dyz        
       27    1 Al dzz        
       28    1 Al dxx        
       29    1 Al dxy        
       30    1 Al dxz        
       31    1 Al dyy        
       32    1 Al dyz        
       33    1 Al dzz        
       34    1 Al dxx        
       35    1 Al dxy        
       36    1 Al dxz        
       37    1 Al dyy        
       38    1 Al dyz        
       39    1 Al dzz        
       40    1 Al fxxx       
       41    1 Al fxxy       
       42    1 Al fxxz       
       43    1 Al fxyy       
       44    1 Al fxyz       
       45    1 Al fxzz       
       46    1 Al fyyy       
       47    1 Al fyyz       
       48    1 Al fyzz       
       49    1 Al fzzz       
       50    1 Al fxxx       
       51    1 Al fxxy       
       52    1 Al fxxz       
       53    1 Al fxyy       
       54    1 Al fxyz       
       55    1 Al fxzz       
       56    1 Al fyyy       
       57    1 Al fyyz       
       58    1 Al fyzz       
       59    1 Al fzzz       
  int_init: cando_txs set to always be  F

 Schwarz integral screening summary 
 ---------------------------------- 

        No. of atom pairs =       1
       No. of shell pairs =     136

 Atomic screening 

   value      no.     value      no.     value      no.     value      no.   
  -------- ------    -------- ------    -------- ------    -------- ------   
  0.00D+00      0    1.00D-13      0    1.00D-12      0    1.00D-11      0
  1.00D-10      0    1.00D-09      0    1.00D-08      0    1.00D-07      0
  1.00D-06      0    1.00D-05      0    1.00D-04      0    1.00D-03      0
  1.00D-02      0    1.00D-01      0    1.00D+00      1    1.00D+01      0


 Shell screening 

   value      no.     value      no.     value      no.     value      no.   
  -------- ------    -------- ------    -------- ------    -------- ------   
  0.00D+00      0    1.00D-13      0    1.00D-12      0    1.00D-11      0
  1.00D-10      0    1.00D-09      0    1.00D-08      0    1.00D-07      0
  1.00D-06      0    1.00D-05      0    1.00D-04      2    1.00D-03      4
  1.00D-02     13    1.00D-01     53    1.00D+00     64    1.00D+01      0


  Caching 1-el integrals 
  atom                     1  - neighbor  & S                     1   10.000000000000000       exp AB    1.4600000000000011E-002   1.4600000000000011E-002
 zmins =     0.014600000    0.014600000 lprod =   2 range =        28.73 acc   0.10D-07
 sh     0.000000000
  Center:                     1  Radial Pts. & Wghts. 
    1        0.000003862           1.7285649E-16
    2        0.000030899           4.4251572E-14
    3        0.000104285           1.1341409E-12
    4        0.000247196           1.1329037E-11
    5        0.000482812           6.7530439E-11
    6        0.000834318           2.9039495E-10
    7        0.001324909           9.9682410E-10
    8        0.001977790           2.9015329E-09
    9        0.002816186           7.4463241E-09
   10        0.003863343           1.7302927E-08
   11        0.005142535           3.7102644E-08
   12        0.006677072           7.4453625E-08
   13        0.008490306           1.4131444E-07
   14        0.010605638           2.5580073E-07
   15        0.013046532           4.4451041E-07
   16        0.015836516           7.4546169E-07
   17        0.018999199           1.2117480E-06
   18        0.022558283           1.9160243E-06
   19        0.026537567           2.9559496E-06
   20        0.030960968           4.4607236E-06
   21        0.035852530           6.5988677E-06
   22        0.041236439           9.5874150E-06
   23        0.047137040           1.3702689E-05
   24        0.053578848           1.9292871E-05
   25        0.060586573           2.6792567E-05
   26        0.068185129           3.6739621E-05
   27        0.076399660           4.9794431E-05
   28        0.085255556           6.6762045E-05
   29        0.094778475           8.8617380E-05
   30        0.104994364           1.1653388E-04
   31        0.115929485           1.5191603E-04
   32        0.127610437           1.9643611E-04
   33        0.140064181           2.5207575E-04
   34        0.153318070           3.2117264E-04
   35        0.167399875           4.0647320E-04
   36        0.182337816           5.1119163E-04
   37        0.198160595           6.3907627E-04
   38        0.214897426           7.9448381E-04
   39        0.232578072           9.8246258E-04
   40        0.251232883           1.2088455E-03
   41        0.270892833           1.4803544E-03
   42        0.291589563           1.8047160E-03
   43        0.313355423           2.1907920E-03
   44        0.336223519           2.6487244E-03
   45        0.360227761           3.1900972E-03
   46        0.385402917           3.8281179E-03
   47        0.411784664           4.5778191E-03
   48        0.439409646           5.4562849E-03
   49        0.468315540           6.4829028E-03
   50        0.498541117           7.6796456E-03
   51        0.530126312           9.0713871E-03
   52        0.563112299           1.0686254E-02
   53        0.597541569           1.2556022E-02
   54        0.633458013           1.4716555E-02
   55        0.670907014           1.7208303E-02
   56        0.709935541           2.0076856E-02
   57        0.750592248           2.3373568E-02
   58        0.792927591           2.7156255E-02
   59        0.836993939           3.1489987E-02
   60        0.882845700           3.6447966E-02
   61        0.930539462           4.2112531E-02
   62        0.980134133           4.8576277E-02
   63        1.031691097           5.5943333E-02
   64        1.085274390           6.4330789E-02
   65        1.140950876           7.3870329E-02
   66        1.198790444           8.4710069E-02
   67        1.258866228           9.7016653E-02
   68        1.321254833           1.1097762E-01
   69        1.386036588           1.2680413E-01
   70        1.453295820           1.4473403E-01
   71        1.523121152           1.6503537E-01
   72        1.595605829           1.8801048E-01
   73        1.670848071           2.1400055E-01
   74        1.748951464           2.4339096E-01
   75        1.830025382           2.7661737E-01
   76        1.914185464           3.1417281E-01
   77        2.001554118           3.5661578E-01
   78        2.092261098           4.0457970E-01
   79        2.186444128           4.5878388E-01
   80        2.284249595           5.2004627E-01
   81        2.385833326           5.8929834E-01
   82        2.491361438           6.6760250E-01
   83        2.601011299           7.5617257E-01
   84        2.714972595           8.5639783E-01
   85        2.833448522           9.6987149E-01
   86        2.956657138           1.0984243E+00
   87        3.084832869           1.2441649E+00
   88        3.218228221           1.4095270E+00
   89        3.357115721           1.5973275E+00
   90        3.501790118           1.8108346E+00
   91        3.652570893           2.0538519E+00
   92        3.809805143           2.3308184E+00
   93        3.973870883           2.6469326E+00
   94        4.145180862           3.0083031E+00
   95        4.324186985           3.4221346E+00
   96        4.511385459           3.8969588E+00
   97        4.707322811           4.4429218E+00
   98        4.912602960           5.0721446E+00
   99        5.127895583           5.7991802E+00
  100        5.353946050           6.6415933E+00
  101        5.591587317           7.6207062E+00
  102        5.841754239           8.7625636E+00
  103        6.105500942           1.0099193E+01
  104        6.384022043           1.1670270E+01
  105        6.678678828           1.3525334E+01
  106        6.991031804           1.5726791E+01
  107        7.322881619           1.8354006E+01
  108        7.676321050           2.1508994E+01
  109        8.053801867           2.5324426E+01
  110        8.458221990           2.9975121E+01
  111        8.893040815           3.5694834E+01
  112        9.362434384           4.2801337E+01
  113        9.871508165           5.1734821E+01
  114       10.426595169           6.3118335E+01
  115       11.035684093           7.7856028E+01
  116       11.709052106           9.7298893E+01
  117       12.460232169           1.2353690E+02
  118       13.307552491           1.5994161E+02
  119       14.276709375           2.1224042E+02
  120       15.405336805           2.9081956E+02
  121       16.751780070           4.1619392E+02
  122       18.413784437           6.3391504E+02
  123       20.574588786           1.0640398E+03
  124       23.645571299           2.1254457E+03
  125       28.939407051           6.4191251E+03
     irreducible set of Lebedev Angular points ;
  0.009523809523810  1.000000000000000  0.000000000000000  0.000000000000000
  0.032142857142857  0.577350269189626  0.577350269189626  0.577350269189626
  0.028571428571429  0.459700843380983  0.000000000000000  0.888073833977115
   total no. of   reducible points:  38; test:  1.00000000
  0.012698412698413  1.000000000000000  0.000000000000000  0.000000000000000
  0.022574955908289  0.707106781186547  0.707106781186547  0.000000000000000
  0.021093750000000  0.577350269189626  0.577350269189626  0.577350269189626
  0.020173335537919  0.301511344577764  0.301511344577764  0.904534033733291
   total no. of   reducible points:  50; test:  1.00000000
  0.000513067179734  1.000000000000000  0.000000000000000  0.000000000000000
  0.016604069565742  0.707106781186547  0.707106781186547  0.000000000000000
 -0.029586038961039  0.577350269189626  0.577350269189626  0.577350269189626
  0.026576207082159  0.480384461415261  0.480384461415261  0.733799385705343
  0.016522170993716  0.320772648980776  0.000000000000000  0.947156221362588
   total no. of   reducible points:  74; test:  1.00000000
  0.011544011544012  1.000000000000000  0.000000000000000  0.000000000000000
  0.011943909085856  0.577350269189626  0.577350269189626  0.577350269189626
  0.011110555710603  0.369602846454150  0.369602846454150  0.852518311701268
  0.011876501294537  0.694354006602666  0.694354006602666  0.189063552885395
  0.011812303746904  0.374243039090341  0.000000000000000  0.927330657151172
   total no. of   reducible points:  86; test:  1.00000000
  0.003828270494937  1.000000000000000  0.000000000000000  0.000000000000000
  0.009793737512488  0.577350269189626  0.577350269189626  0.577350269189626
  0.008211737283191  0.185115635344736  0.185115635344736  0.965124035086594
  0.009942814891178  0.690421048382292  0.690421048382292  0.215957291845848
  0.009595471336071  0.395689473055942  0.395689473055942  0.828769981252592
  0.009694996361663  0.478369028812150  0.000000000000000  0.878158910604066
   total no. of   reducible points: 110; test:  1.00000000
  0.000599631368862  1.000000000000000  0.000000000000000  0.000000000000000
  0.007372999718621  0.707106781186547  0.707106781186547  0.000000000000000
  0.007210515360144  0.577350269189626  0.577350269189626  0.577350269189626
  0.007116355493118  0.676441040011426  0.676441040011426  0.291298882209527
  0.006753829486314  0.417496122796545  0.417496122796545  0.807089818359583
  0.007574394159054  0.157467667203908  0.157467667203908  0.974888643677173
  0.006991087353303  0.140355381171318  0.449332832326956  0.882270011260323
   total no. of   reducible points: 146; test:  1.00000000
  0.005544842902037  1.000000000000000  0.000000000000000  0.000000000000000
  0.006071332770671  0.707106781186547  0.707106781186547  0.000000000000000
  0.006383674773515  0.577350269189626  0.577350269189626  0.577350269189626
  0.005183387587748  0.255125262111413  0.255125262111413  0.932642590312691
  0.006317929009814  0.674360146036277  0.674360146036277  0.300793595137701
  0.006201670006589  0.431891069671941  0.431891069671941  0.791795559393492
  0.005477143385137  0.261393136033599  0.000000000000000  0.965232421976448
  0.005968383987681  0.499045316179604  0.144663074432512  0.854415804684659
   total no. of   reducible points: 170; test:  1.00000000
  0.001782340447245  1.000000000000000  0.000000000000000  0.000000000000000
  0.005716905949977  0.707106781186547  0.707106781186547  0.000000000000000
  0.005573383178849  0.577350269189626  0.577350269189626  0.577350269189626
  0.005608704082588  0.671297344269523  0.671297344269523  0.314196994182586
  0.005158237711805  0.289246562757544  0.289246562757544  0.912509096867474
  0.005518771467274  0.444693317871744  0.444693317871744  0.777493219314767
  0.004106777028169  0.129933544765007  0.129933544765007  0.982972302707253
  0.005051846064615  0.345770219761128  0.000000000000000  0.938319218137592
  0.005530248916233  0.159041710538353  0.836036015482459  0.525118572443642
   total no. of   reducible points: 194; test:  1.00000000
 -0.055226399197273  1.000000000000000  0.000000000000000  0.000000000000000
  0.004450274607445  0.577350269189626  0.577350269189626  0.577350269189626
  0.004496841067921  0.449204468739761  0.449204468739761  0.772289253148364
  0.005049153450479  0.252041949021020  0.252041949021020  0.934317778845812
  0.003976408018052  0.698190665844724  0.698190665844724  0.158302205463478
  0.004401400650381  0.658740524346096  0.658740524346096  0.363485684956727
  0.017245443505444  0.040385440500977  0.040385440500977  0.998367683967727
  0.004231083095357  0.582384230971558  0.000000000000000  0.812913653173365
  0.005198069864064  0.354587739051869  0.000000000000000  0.935022745880593
  0.004695720972569  0.227218180899819  0.486466153588665  0.843636521068894
   total no. of   reducible points: 230; test:  1.00000000
 -0.001313769127327  1.000000000000000  0.000000000000000  0.000000000000000
 -0.002522728704859  0.707106781186547  0.707106781186547  0.000000000000000
  0.004186853881701  0.577350269189626  0.577350269189626  0.577350269189626
  0.005315167977811  0.703937339158548  0.703937339158548  0.094575076403713
  0.004047142377086  0.101252624857241  0.101252624857241  0.989694807462905
  0.004112482394407  0.464744872642054  0.464744872642054  0.753673939250816
  0.003595584899759  0.327742065497163  0.327742065497163  0.886098344997499
  0.004256131351428  0.662033866369997  0.662033866369997  0.351315128564633
  0.004229582700647  0.850650808352040  0.000000000000000  0.525731112119134
  0.004080914225781  0.323348454269290  0.115311201100970  0.939227929749916
  0.004071467593831  0.231479015871260  0.524493924092236  0.819343388819120
   total no. of   reducible points: 266; test:  1.00000000
  0.000854591172513  1.000000000000000  0.000000000000000  0.000000000000000
  0.003599119285026  0.577350269189626  0.577350269189626  0.577350269189626
  0.003449788424306  0.351564034557011  0.351564034557011  0.867643624544083
  0.003604822601420  0.656632941021961  0.656632941021961  0.371034178384821
  0.003576729661743  0.472905413258100  0.472905413258100  0.743452042987556
  0.002352101413689  0.096183085226148  0.096183085226148  0.990705621379408
  0.003108953122414  0.221964523629418  0.221964523629418  0.949454317226443
  0.003650045807677  0.701176641608955  0.701176641608955  0.129238672710514
  0.002982344963172  0.264415288706066  0.000000000000000  0.964408914879206
  0.003600820932216  0.571895589187896  0.000000000000000  0.820326419827759
  0.003571540554273  0.251003475177047  0.800072749407395  0.544867737258077
  0.003392312205006  0.123354853258333  0.412772408316853  0.902442529533000
   total no. of   reducible points: 302; test:  1.00000000
  0.003006796749454  1.000000000000000  0.000000000000000  0.000000000000000
  0.003050627745651  0.577350269189626  0.577350269189626  0.577350269189626
  0.001621104600289  0.706896546391232  0.706896546391232  0.024383301669356
  0.003005701484902  0.479468262571203  0.479468262571203  0.734996850587746
  0.002990992529654  0.192753315487802  0.192753315487802  0.962129055136014
  0.002982170644108  0.693035796132712  0.693035796132712  0.198501311223365
  0.002721564237311  0.360830211552009  0.360830211552009  0.860001812127547
  0.003033513795811  0.649848616149617  0.649848616149617  0.394199888605839
  0.003007949555219  0.193294501323034  0.000000000000000  0.981140782843257
  0.002881964603055  0.380049491989930  0.000000000000000  0.924966152698679
  0.002958357626536  0.289955882549957  0.793453785658232  0.535123047718276
  0.003036020026407  0.096841214551040  0.828080150668686  0.552182074349399
  0.002832187403926  0.183343464704166  0.907465826530513  0.378009189874487
   total no. of   reducible points: 350; test:  1.00000000
  0.000526589796822  1.000000000000000  0.000000000000000  0.000000000000000
  0.002548219972003  0.707106781186547  0.707106781186547  0.000000000000000
  0.002512317418927  0.577350269189626  0.577350269189626  0.577350269189626
  0.002530403801186  0.690934630750911  0.690934630750911  0.212646824707552
  0.002014279020919  0.177483605460916  0.177483605460916  0.967987158791473
  0.002501725168403  0.491434263778475  0.491434263778475  0.719016501040843
  0.002513267174598  0.645666470742426  0.645666470742426  0.407712664897770
  0.002302694782227  0.286128901030764  0.286128901030764  0.914472801120872
  0.001462495621595  0.075680843671780  0.075680843671780  0.994255912631278
  0.002445373437313  0.392725976336800  0.392725976336800  0.831584400419232
  0.002417442375639  0.881813287779429  0.000000000000000  0.471598691151316
  0.001910951282180  0.977642811118265  0.000000000000000  0.210272522857307
  0.002416930044325  0.205482369640304  0.868946032287241  0.450233038258263
  0.002512236854563  0.590515704892527  0.799927854385729  0.106801826075805
  0.002496644054553  0.555015236107681  0.771746262691590  0.310428403516654
  0.002236607760438  0.937180985855372  0.334436314534346  0.099217696364292
   total no. of   reducible points: 434; test:  1.00000000
  0.000309512129531  1.000000000000000  0.000000000000000  0.000000000000000
  0.001852379698597  0.577350269189626  0.577350269189626  0.577350269189626
  0.001871790639278  0.704095493822747  0.704095493822747  0.092190407076898
  0.001858812585438  0.680774406645524  0.680774406645524  0.270356088359165
  0.001852028828296  0.637254693925875  0.637254693925875  0.433373868777154
  0.001846715956151  0.504441970780036  0.504441970780036  0.700768575373573
  0.001818471778163  0.421576178401097  0.421576178401097  0.802836877335274
  0.001749564657281  0.331792073647212  0.331792073647212  0.883078727934133
  0.001617210647254  0.238473670142189  0.238473670142189  0.941414158220403
  0.001384737234852  0.145903644915776  0.145903644915776  0.978480583762694
  0.000976433116505  0.060950341155072  0.060950341155072  0.996278129754016
  0.001857161196774  0.611684344200988  0.000000000000000  0.791101929626902
  0.001705153996396  0.396475534819986  0.000000000000000  0.918045287711454
  0.001300321685886  0.172478200990772  0.000000000000000  0.985013335028002
  0.001842866472905  0.561026380862206  0.351828092773352  0.749310611904116
  0.001802658934377  0.474239284255198  0.263471665593795  0.840047488359050
  0.001849830560444  0.598412649788538  0.181664084036021  0.780320742479920
  0.001713904507107  0.379103540769556  0.172079522565688  0.909213475092374
  0.001555213603397  0.277867319058624  0.082130215819325  0.957102074310073
  0.001802239128009  0.503356427107512  0.089992058420749  0.859379855890721
   total no. of   reducible points: 590; test:  1.00000000
  0.000219294208818  1.000000000000000  0.000000000000000  0.000000000000000
  0.001436433617319  0.707106781186547  0.707106781186547  0.000000000000000
  0.001421940344336  0.577350269189626  0.577350269189626  0.577350269189626
  0.000679812351105  0.050872044105024  0.050872044105024  0.997408677652823
  0.000991318423529  0.122819879017883  0.122819879017883  0.984799753572301
  0.001180207833239  0.202689081440879  0.202689081440879  0.958036675983391
  0.001296599602081  0.284774515646429  0.284774515646429  0.915317950483155
  0.001365871427428  0.365671907897803  0.365671907897803  0.855901928697887
  0.001402988604775  0.442826488671347  0.442826488671347  0.779621319527635
  0.001418645563596  0.514061962724974  0.514061962724974  0.686644447264154
  0.001421376741852  0.630640121916680  0.630640121916680  0.452311920313658
  0.001423996475491  0.671688333202261  0.671688333202261  0.312521305001653
  0.001431554042179  0.697979268533688  0.697979268533688  0.160155803498829
  0.000925440149987  0.144686567419531  0.000000000000000  0.989477537495599
  0.001250239995054  0.339026347541122  0.000000000000000  0.940776878793759
  0.001394365843329  0.533580465126351  0.000000000000000  0.845749305193653
  0.001127089094672  0.069440243933494  0.235518789424233  0.969385863498432
  0.001345753760911  0.226900410952946  0.410218247404573  0.883310360522113
  0.001424957283317  0.080255746077753  0.621430241748161  0.779348105702661
  0.001261523341238  0.146799952789657  0.324528434571739  0.934414827052402
  0.001392547106053  0.157150776982473  0.522448218969663  0.838064133458312
  0.001418761677878  0.236570299315725  0.601754663408956  0.762840624604670
  0.001338366684480  0.077148158667657  0.434657551614116  0.897285336132833
  0.001393700862676  0.306293666621073  0.490882658903762  0.815609223203975
  0.001415914757467  0.382247737952479  0.564876814909950  0.731300793659766
   total no. of   reducible points: 770; test:  1.00000000
  0.000143829419053  1.000000000000000  0.000000000000000  0.000000000000000
  0.001125772288287  0.577350269189626  0.577350269189626  0.577350269189626
  0.000494802934195  0.042929635453413  0.042929635453413  0.998155345023847
  0.000735799010913  0.105142685408640  0.105142685408640  0.988883224354686
  0.000888913277130  0.175002486762309  0.175002486762309  0.968890220434707
  0.000988834783892  0.247765337965026  0.247765337965026  0.936602730407163
  0.001053299681709  0.320656712395596  0.320656712395596  0.891267942647606
  0.001092778807015  0.391652074984998  0.391652074984998  0.832596723702352
  0.001114389394063  0.459082587418762  0.459082587418762  0.760582905315251
  0.001123724788052  0.521456388841586  0.521456388841586  0.675400969108414
  0.001125239325244  0.625317024465420  0.625317024465420  0.466858905695743
  0.001126153271816  0.663792674452317  0.663792674452317  0.344613654237438
  0.001130286931124  0.691041039849830  0.691041039849830  0.211954151850184
  0.001134986534364  0.705290700745776  0.705290700745776  0.071624401449956
  0.000682336792711  0.123668676265799  0.000000000000000  0.992323565431490
  0.000945415816045  0.294077711446839  0.000000000000000  0.955781512496548
  0.001074429975386  0.469775384920765  0.000000000000000  0.882785980701182
  0.001129300086569  0.633456324113957  0.000000000000000  0.773778447257375
  0.000843688450090  0.059740486141813  0.202912875277752  0.977372722845310
  0.001075255720449  0.137576040847364  0.460262194248405  0.877058461865803
  0.001108577236864  0.339101652633629  0.503067399966204  0.794942299964208
  0.000956647532378  0.127167519143982  0.281760642244213  0.951020169374390
  0.001080663250717  0.269312074041351  0.433156129172016  0.860143461601762
  0.001126797131196  0.141978645260192  0.625616735858081  0.767102186220558
  0.001022568715358  0.067092846007383  0.379839521685916  0.922616110730809
  0.001108960267713  0.070577381832562  0.551750542142352  0.831017552413474
  0.001122790653436  0.278388847788215  0.602961915615919  0.747620610834086
  0.001032401847117  0.197957893891741  0.358960632958910  0.912118378409121
  0.001107249382284  0.208730706110327  0.534866643813548  0.818748536281022
  0.001121780048520  0.405512213787284  0.567499754607437  0.716591845467024
   total no. of   reducible points: 974; test:  1.00000000
  0.000110518923327  1.000000000000000  0.000000000000000  0.000000000000000
  0.000920523273809  0.707106781186547  0.707106781186547  0.000000000000000
  0.000913315978644  0.577350269189626  0.577350269189626  0.577350269189626
  0.000369042189802  0.037126364496571  0.037126364496571  0.998620681799919
  0.000560399092868  0.091400604122622  0.091400604122622  0.991610739722014
  0.000686529762928  0.153107785246991  0.153107785246991  0.976276606394685
  0.000772033855115  0.218092889166061  0.218092889166061  0.951247067480579
  0.000830154595889  0.283987453220018  0.283987453220018  0.915806886208668
  0.000868669255018  0.349117760096376  0.349117760096376  0.869616915181954
  0.000892707628585  0.412143146144431  0.412143146144431  0.812573722299916
  0.000906082023857  0.471899362714913  0.471899362714913  0.744729469632107
  0.000911977725494  0.527314545284234  0.527314545284234  0.666242253736104
  0.000912872013860  0.620947533244402  0.620947533244402  0.478380938076952
  0.000913071493569  0.656972271185729  0.656972271185729  0.369830866459426
  0.000915287378455  0.684178830907014  0.684178830907014  0.252583955700718
  0.000918743627432  0.701260433012363  0.701260433012363  0.128326186659723
  0.000517697731297  0.107238221547817  0.000000000000000  0.994233354821322
  0.000733114368210  0.258206895949697  0.000000000000000  0.966089643296119
  0.000846323283638  0.417275295530672  0.000000000000000  0.908780131681911
  0.000903112269425  0.570036691179250  0.000000000000000  0.821619237061433
  0.000648577845316  0.982798601826395  0.177177402261533  0.052106394770113
  0.000743503091098  0.962424923032623  0.247571646342629  0.111564095715648
  0.000799852789184  0.940200799412881  0.335461628906649  0.059058888532354
  0.000810173149747  0.932082204014320  0.317361524661198  0.174655167757863
  0.000848338957459  0.904367419939330  0.409026842708536  0.121723505109599
  0.000855629925731  0.891240756007475  0.385429115066922  0.239027847938172
  0.000880320867974  0.867643562846271  0.493222118485128  0.062662506241542
  0.000881104818243  0.858197998604162  0.478532067592243  0.185750519454734
  0.000885028234127  0.839675362404986  0.450742259315706  0.302946697352898
  0.000902134229904  0.816528856402219  0.563212302076210  0.126777480068428
  0.000901009167711  0.801546937078353  0.543430356969390  0.249411216236224
  0.000902269293843  0.777356306907035  0.512351848641987  0.364983226059765
  0.000915801617469  0.766162121390039  0.639427963474910  0.064245492242208
  0.000913157800319  0.755358414353351  0.626980550902439  0.190601822277923
  0.000910781357948  0.734430575755950  0.603116169309631  0.311227594714961
  0.000910576025897  0.704383718402177  0.569370249846844  0.423864478152234
   total no. of   reducible points:1202; test:  1.00000000
  0.000077771607433  1.000000000000000  0.000000000000000  0.000000000000000
  0.000755764641300  0.577350269189626  0.577350269189626  0.577350269189626
  0.000284163380609  0.032292906634139  0.032292906634139  0.998956623864238
  0.000437441912705  0.080367332714622  0.080367332714622  0.993520097262594
  0.000541717474087  0.135428996053165  0.135428996053165  0.981487633165117
  0.000614800089136  0.193896386111443  0.193896386111443  0.961669580940275
  0.000666439448580  0.253734371501127  0.253734371501127  0.933401166400522
  0.000702503935692  0.313525143475257  0.313525143475257  0.896328047546008
  0.000726851178925  0.372155833937534  0.372155833937534  0.850294108254619
  0.000742263753421  0.428680957519570  0.428680957519570  0.795276853253136
  0.000750954503584  0.482251012828299  0.482251012828299  0.731346649169981
  0.000754853505772  0.532067933356626  0.532067933356626  0.658640591360127
  0.000755408896977  0.617299819539427  0.617299819539427  0.487731345715221
  0.000755314717444  0.651067984912748  0.651067984912748  0.390155043595885
  0.000756476765329  0.677731525168736  0.677731525168736  0.285236672931301
  0.000758799180852  0.696310941064874  0.696310941064874  0.174075117999957
  0.000760826183203  0.705893500983175  0.705893500983175  0.058555363028785
  0.000402168044787  0.995554619409186  0.000000000000000  0.094185985013862
  0.000580487179395  0.973411590179421  0.000000000000000  0.229063039585986
  0.000679215195595  0.927569373238863  0.000000000000000  0.373650983980055
  0.000733674121129  0.856802242279510  0.000000000000000  0.515645147000147
  0.000758186630099  0.762349555371937  0.000000000000000  0.647165477620840
  0.000753825785980  0.570752290889222  0.438702803988950  0.694104943230444
  0.000748351724705  0.519646338840308  0.385890841476262  0.762270254565011
  0.000737176366111  0.464633753121535  0.330193737234385  0.821637128756598
  0.000718344889576  0.406390169755769  0.272542357356378  0.872105322408083
  0.000689581552982  0.345632946664309  0.213951023749525  0.913653558859526
  0.000648010580179  0.283139512105033  0.155592230978665  0.946373644151191
  0.000589755889659  0.219768202292533  0.098928789796861  0.970523071240677
  0.000509570884925  0.156469609865035  0.045986429106755  0.986611630545015
  0.000753690642891  0.602735667372129  0.337662514017343  0.722975616397235
  0.000747250596558  0.549603232025510  0.282230130972799  0.786309379645309
  0.000734301713228  0.492170775523457  0.224863234259254  0.840954489612314
  0.000713087158218  0.430942299859848  0.166622472345648  0.886862833757808
  0.000681702203211  0.366410818231367  0.108696490182217  0.924082347686118
  0.000638094114560  0.299018905775844  0.052519897841201  0.952800794667682
  0.000755038137792  0.626872401314500  0.229752365755002  0.744476220506856
  0.000747864664014  0.570732414483461  0.172308060709380  0.802853936449496
  0.000733591872060  0.509636090196037  0.114023846539051  0.852801042441985
  0.000711012052766  0.443872993831246  0.056115220958825  0.894330949550573
  0.000757136397869  0.641997847108239  0.116417442314087  0.757816431224233
  0.000748990832908  0.581721806180261  0.057975895314452  0.811319009870262
   total no. of   reducible points:1454; test:  1.00000000
  qrot: 

              1        2        3      
    1    1.0000   0.0000   0.0000
    2    0.0000   1.0000   0.0000
    3    0.0000   0.0000   1.0000
  me                     0   done genpts
  me                     1   done genpts
  me                     2   done genpts
  me                     3   done genpts
  me                     4   done genpts
  me                     5   done genpts
  me                     6   done genpts
  me                     7   done genpts
  me                     0   done uprt
  me                     1   done uprt
  me                     2   done uprt
  me                     3   done uprt
  me                     4   done uprt
  me                     5   done uprt
  me                     6   done uprt
  me                     7   done uprt
  me                     0  done mem
  me                     1  done mem
  me                     2  done mem
  me                     3  done mem
  me                     4  done mem
  me                     5  done mem
  me                     6  done mem
  me                     7  done mem
  dftinpanae: itol2e                     8  iaoacc                    14  tol_rho    1.0000000000000000E-010

            General Information
            -------------------
          SCF calculation type: DFT
          Wavefunction type:  spin polarized.
          No. of atoms     :     1
          No. of electrons :    13
           Alpha electrons :     7
            Beta electrons :     6
          Charge           :     0
          Spin multiplicity:     2
          Use of symmetry is: off; symmetry adaption is: off
          Maximum number of iterations:  50
          AO basis - number of functions:    59
                     number of shells:    16
          Convergence on energy requested:  1.00D-06
          Convergence on density requested:  1.00D-05
          Convergence on gradient requested:  5.00D-04

              XC Information
              --------------
                     Hartree-Fock (Exact) Exchange  1.000          
                     LC-wPBE(h)Exchange Functional  1.000          
            Perdew 1991 LDA Correlation Functional  1.000 local    
           PerdewBurkeErnz. Correlation Functional  1.000 non-local

           Range-Separation Parameters        
           ---------------------------
           Alpha           :  0.00
           Beta            :  1.00
           Gamma           :  0.40
           Short-Range HF  :     F

             Grid Information
             ----------------
          Grid used for XC integration:  xfine     
          Radial quadrature: Mura-Knowles        
          Angular quadrature: Lebedev. 
          Tag              B.-S. Rad. Rad. Pts. Rad. Cut. Ang. Pts.
          ---              ---------- --------- --------- ---------
          Al                  1.25      125          15.0      1454
          Grid pruning is: on 
          Number of quadrature shells:   125
          Spatial weights used:  Erf1

          Convergence Information
          -----------------------
          Convergence aids based upon iterative change in 
          total energy or number of iterations. 
          Levelshifting, if invoked, occurs when the 
          HOMO/LUMO gap drops below (HL_TOL):  1.00D-02
          DIIS, if invoked, will attempt to extrapolate 
          using up to (NFOCK): 10 stored Fock matrices.

                    Damping( 0%)  Levelshifting(0.5)       DIIS
                  --------------- ------------------- ---------------
          dE  on:    start            ASAP                start   
          dE off:    2 iters         50 iters            50 iters 


      Screening Tolerance Information
      -------------------------------
          Density screening/tol_rho:  1.00D-10
          AO Gaussian exp screening on grid/accAOfunc:  14
          CD Gaussian exp screening on grid/accCDfunc:  20
          XC Gaussian exp screening on grid/accXCfunc:  20
          Schwarz screening/accCoul:  1.00D-08



                         Geometry "geometry" -> "geometry"
                         ---------------------------------

 Output coordinates in angstroms (scale by  1.889725989 to convert to a.u.)

  No.       Tag          Charge          X              Y              Z
 ---- ---------------- ---------- -------------- -------------- --------------
    1 Al                  13.0000     0.00000000     0.00000000     0.00000000

      Atomic Mass 
      ----------- 

      Al                26.981540


 Effective nuclear repulsion energy (a.u.)       0.0000000000

            Nuclear Dipole moment (a.u.) 
            ----------------------------
        X                 Y               Z
 ---------------- ---------------- ----------------
     0.0000000000     0.0000000000     0.0000000000

  
  CAM type calculations without CDFIT are
  only available with the direct option.
  Forcing Direct SCF
  


     <<<<<<    Before call to DFT_SCF.    >>>>>>
     <<<<<< date:  Apr 24  time: 11:05:37 >>>>>>


 Setting tolerance for linear dependence to 1.00D-05

 Setting tolerance for linear dependence to 1.00D-05

 Setting tolerance for linear dependence to 1.00D-05

 Setting tolerance for linear dependence to 1.00D-05

 Setting tolerance for linear dependence to 1.00D-05

 Setting tolerance for linear dependence to 1.00D-05

 Setting tolerance for linear dependence to 1.00D-05

 Setting tolerance for linear dependence to 1.00D-05
  lindep tolerance =    1.0000000000000001E-005
  lindep tolerance =    1.0000000000000001E-005
  lindep tolerance =    1.0000000000000001E-005
  lindep tolerance =    1.0000000000000001E-005
  lindep tolerance =    1.0000000000000001E-005
  lindep tolerance =    1.0000000000000001E-005
  lindep tolerance =    1.0000000000000001E-005
  lindep tolerance =    1.0000000000000001E-005


     <<<<<<    Before 3c-2e initialize.   >>>>>>
     <<<<<< date:  Apr 24  time: 11:05:37 >>>>>>


 Setting fock-build task_bf   :      -1
                    maxquartet:   10000
                    maxeri    :  129600
                    maxscr    :       0
                    intacc    : 0.0D+00
                    denscreen : T
                    dentol    : 1.0D-06


      Superposition of Atomic Density Guess
      -------------------------------------

 Sum of atomic energies:        -241.87958821

      Non-variational initial energy
      ------------------------------

 Total energy =    -241.768942
 1-e energy   =    -336.632475
 2-e energy   =      94.863533
 HOMO         =      -0.010529
 LUMO         =      -0.010529


 Setting fock-build task_bf   :      -1
                    maxquartet:   10000
                    maxeri    :  129600
                    maxscr    :       0
                    intacc    : 0.0D+00
                    denscreen : T
                    dentol    : 1.0D-06


 Wrote molecular orbitals to ./al.movecs

  WARNING: movecs_in_org=atomic not equal to movecs_in=./al.movecs
   Time after variat. SCF:      1.2

 Setting fock-build task_bf   :      -1
                    maxquartet:   10000
                    maxeri    :  129600
                    maxscr    :       0
                    intacc    : 0.0D+00
                    denscreen : T
                    dentol    : 1.0D-06

   Time prior to 1st pass:      1.2


     <<<<<<      Before SCF iter loop.    >>>>>>
     <<<<<< date:  Apr 24  time: 11:05:37 >>>>>>

           DAMPING=T LEVELSHIFTING=F DIISING=T
          itol2e= 8 iAOacc=12 iXCacc=20


     <<<<<<            calling 1-e int    >>>>>>
     <<<<<< date:  Apr 24  time: 11:05:37 >>>>>>

    Kinetic Matrix Time:          0.0s

           Kinetic energy =    241.623243623846

    Potential Matrix Time:          0.0s


     <<<<<<    Before call to GETVXC.     >>>>>>
     <<<<<< date:  Apr 24  time: 11:05:37 >>>>>>



     <<<<<<    Before call to fock_2e.    >>>>>>
     <<<<<< date:  Apr 24  time: 11:05:37 >>>>>>



     <<<<<<     After call to fock_2e.    >>>>>>
     <<<<<< date:  Apr 24  time: 11:05:38 >>>>>>

    Fock_2e Build Time:          0.3s
  *** grid_quadv0:                    calc_type:                    1
  *** grid_quadv0:                    grid_written: F
  *** grid_quadv0:                    grad: T
  *** grid_quadv0:                    kske: F
  *** grid_quadv0:                    kslap: F
  *** grid_quadv0:                    do_scf: T
  *** grid_quadv0:                    fde_option:                    0
  *** grid_quadv0:                    n_per_rec:                 3070
  *** grid_quadv0:                    calc_type:                    1
  *** grid_quadv0:                    grid_written: F
  *** grid_quadv0:                    grad: T
  *** grid_quadv0:                    kske: F
  *** grid_quadv0:                    kslap: F
  *** grid_quadv0:                    do_scf: T
  *** grid_quadv0:                    fde_option:                    0
  *** grid_quadv0:                    n_per_rec:                 3070
  *** grid_quadv0:                    calc_type:                    1
  *** grid_quadv0:                    grid_written: F
  *** grid_quadv0:                    grad: T
  *** grid_quadv0:                    kske: F
  *** grid_quadv0:                    kslap: F
  *** grid_quadv0:                    do_scf: T
  *** grid_quadv0:                    fde_option:                    0
  *** grid_quadv0:                    n_per_rec:                 3070
  *** grid_quadv0:                    calc_type:                    1
  *** grid_quadv0:                    grid_written: F
  *** grid_quadv0:                    grad: T
  *** grid_quadv0:                    kske: F
  *** grid_quadv0:                    kslap: F
  *** grid_quadv0:                    do_scf: T
  *** grid_quadv0:                    fde_option:                    0
  *** grid_quadv0:                    n_per_rec:                 3070
  *** grid_quadv0:                    calc_type:                    1
  *** grid_quadv0:                    grid_written: F
  *** grid_quadv0:                    grad: T
  *** grid_quadv0:                    kske: F
  *** grid_quadv0:                    kslap: F
  *** grid_quadv0:                    do_scf: T
  *** grid_quadv0:                    fde_option:                    0
  *** grid_quadv0:                    n_per_rec:                 3070
  *** grid_quadv0:                    calc_type:                    1
  *** grid_quadv0:                    grid_written: F
  *** grid_quadv0:                    grad: T
  *** grid_quadv0:                    kske: F
  *** grid_quadv0:                    kslap: F
  *** grid_quadv0:                    do_scf: T
  *** grid_quadv0:                    fde_option:                    0
  *** grid_quadv0:                    n_per_rec:                 3070
  *** grid_quadv0:                    calc_type:                    1
  *** grid_quadv0:                    grid_written: F
  *** grid_quadv0:                    grad: T
  *** grid_quadv0:                    kske: F
  *** grid_quadv0:                    kslap: F
  *** grid_quadv0:                    do_scf: T
  *** grid_quadv0:                    fde_option:                    0
  *** grid_quadv0:                    n_per_rec:                 3070
  *** grid_quadv0:                    calc_type:                    1
  *** grid_quadv0:                    grid_written: F
  *** grid_quadv0:                    grad: T
  *** grid_quadv0:                    kske: F
  *** grid_quadv0:                    kslap: F
  *** grid_quadv0:                    do_scf: T
  *** grid_quadv0:                    fde_option:                    0
  *** grid_quadv0:                    n_per_rec:                 3070
   2: nuse=   8 avail= 12500000Mb on .
   5: nuse=   8 avail= 12500000Mb on .
   7: nuse=   8 avail= 12500000Mb on .
   0: nuse=   8 avail= 12500000Mb on .
   1: nuse=   8 avail= 12500000Mb on .
   3: nuse=   8 avail= 12500000Mb on .
   4: nuse=   8 avail= 12500000Mb on .
   6: nuse=   8 avail= 12500000Mb on .
 l_cube input   11.00

  atom type   l_cube   no. cubes   segmts   rad   sub
 ----------- -------- ----------- -------- ----- -----
        1     11.60       124         5      29     8

 Grid_pts file          = ./al.gridpts.0
 Record size in doubles =  12289        No. of grid_pts per rec  =   3070
 Max. records in memory =     10        Max. recs in file   = 126656358

 me   0 NQTOTC NQ/cube   14644     197
 me   1 NQTOTC NQ/cube    8922     811
 me   2 NQTOTC NQ/cube   14273    1585
 me   3 NQTOTC NQ/cube    9878    4939
 me   4 NQTOTC NQ/cube    8742    1748
 me   5 NQTOTC NQ/cube   10442     949
 me   6 NQTOTC NQ/cube    9520    3173
 me   7 NQTOTC NQ/cube   11153    1239

 XC quadr. integrated density :      13.000000 npts:    87206 nctrs:        1

    Fock_xc Build Time:          0.2s


     <<<<<<    Before call to GETVCOUL.   >>>>>>
     <<<<<< date:  Apr 24  time: 11:05:38 >>>>>>



     <<<<<<    End of parallel region.    >>>>>>
     <<<<<< date:  Apr 24  time: 11:05:38 >>>>>>

    Total Fock Matrix Build Time:          0.5s
 Etnew, Ecore, Ecoul, Exc(1), Exc(2), Totsic:   -242.22119238701532       -335.66637904599423        111.81685514271634       -18.371668483737434        0.0000000000000000        0.0000000000000000     
  delta =   -242.22119238701532     
  delta =   -242.22119238701532     
  delta =   -242.22119238701532     
  delta =   -242.22119238701532     
  delta =   -242.22119238701532     
  delta =   -242.22119238701532     
  delta =   -242.22119238701532     
  delta =   -242.22119238701532     


         Total DFT energy =     -242.221192387015
      One electron energy =     -335.666379045994
           Coulomb energy =      111.816855142716
    Exchange-Corr. energy =      -18.371668483737
 Nuclear repulsion energy =        0.000000000000

 Numeric. integr. density =       12.999999997049

     Total iterative time =      1.9s




     <<<<<<        calling diis driver    >>>>>>
     <<<<<< date:  Apr 24  time: 11:05:38 >>>>>>

 nhist                     1  pulay matrix 
   0.0000E+00
  -1.0000E+00   5.9449E-02


     <<<<<<         called diis driver    >>>>>>
     <<<<<< date:  Apr 24  time: 11:05:38 >>>>>>


 global array: fock transf[1:59,1:59],  handle: -940 

            1           2           3           4           5           6  
       ----------- ----------- ----------- ----------- ----------- -----------
   1       1.33669    -0.00000     0.00000    -0.00000    -0.72744    -0.46716
   2      -0.00000     0.38235     0.00046    -0.00105    -0.00000     0.00000
   3       0.00000     0.00046     0.38267    -0.00147     0.00000    -0.00000
   4      -0.00000    -0.00105    -0.00147     0.38536    -0.00000     0.00000
   5      -0.72744    -0.00000     0.00000    -0.00000     1.36549     1.06029
   6      -0.46716     0.00000    -0.00000     0.00000     1.06029     1.09285
   7       0.00000     0.07348     0.05661     0.00727     0.00000    -0.00000
   8       0.00000    -0.03717     0.03792     0.07658     0.00000    -0.00000
   9       0.00000     0.04321    -0.06336     0.05293     0.00000    -0.00000
  10      -0.00000     0.00012     0.00022    -0.00026    -0.00000     0.00000
  11      -0.31937    -0.00000     0.00000    -0.00000     0.07177     0.32267
  12      -0.00000     0.00011    -0.00001    -0.00002    -0.00000     0.00000
  13      -0.00000     0.00005    -0.00009     0.00026    -0.00000     0.00000
  14      -0.00000     0.00014     0.00003    -0.00017    -0.00000     0.00000
  15       0.00001     0.00000    -0.00000     0.00000    -0.00002     0.00018
  16       0.00003     0.00000    -0.00000     0.00000    -0.00003     0.00033
  17       0.00006    -0.00000     0.00000    -0.00000    -0.00007     0.00074
  18       0.00000     0.01648     0.00473     0.01023     0.00000    -0.00000
  19       0.00000    -0.00674    -0.01106     0.01576     0.00000    -0.00000
  20       0.00000     0.00918    -0.01614    -0.00711     0.00000    -0.00000
  21      -0.00000     0.00007     0.00015    -0.00012    -0.00000     0.00000
  22      -0.00002     0.00000    -0.00000     0.00000     0.00003    -0.00029
  23      -0.00003    -0.00000     0.00000     0.00000     0.00003    -0.00033
  24      -0.00000     0.00012    -0.00002    -0.00010    -0.00000     0.00000
  25      -0.00000     0.00008    -0.00002     0.00018    -0.00000     0.00000
  26       0.00000    -0.00015     0.00004    -0.00003     0.00000    -0.00000
  27       0.00020    -0.00000     0.00000    -0.00000     0.00033     0.00008
  28      -0.00035    -0.00000     0.00000    -0.00000    -0.00056    -0.00015
  29       0.00014    -0.00000     0.00000    -0.00000     0.00022     0.00006
  30      -0.00000     0.01738     0.01128     0.00112    -0.00000     0.00000
  31      -0.00000    -0.00994     0.01428     0.01175    -0.00000     0.00000
  32      -0.00000     0.00570    -0.01003     0.01721    -0.00000     0.00000
  33      -0.00000    -0.04642     0.07262    -0.00757    -0.00000     0.00000
  34       0.00000    -0.01461    -0.00095     0.08601     0.00000    -0.00000
  35      -0.00000    -0.07156    -0.04718    -0.01209    -0.00000     0.00000
  36      -0.03036    -0.00000     0.00000    -0.00000     0.05318     0.17728
  37       0.00000     0.02729    -0.01595    -0.00640     0.00000    -0.00000
  38       0.00000     0.01708     0.02443     0.01227     0.00000    -0.00000
  39      -0.00000     0.00121     0.01366    -0.02917    -0.00000     0.00000
  40      -0.00006    -0.00000     0.00000    -0.00000    -0.00010    -0.00003
  41      -0.00022    -0.00000    -0.00000    -0.00000    -0.00035    -0.00009
  42      -0.00002    -0.00000     0.00000    -0.00000     0.00001    -0.00007
  43      -0.00004     0.00000    -0.00000     0.00000     0.00003    -0.00015
  44      -0.00005    -0.00000     0.00000    -0.00000     0.00004    -0.00020
  45       0.00383     0.00000    -0.00000     0.00000     0.06372     0.09861
  46       0.00000    -0.02199    -0.01521    -0.00279     0.00000    -0.00000
  47       0.00000    -0.00701     0.01480    -0.02180     0.00000    -0.00000
  48      -0.00000    -0.01373     0.01653     0.01623    -0.00000     0.00000
  49      -0.00003     0.00000     0.00000     0.00000     0.00002    -0.00012
  50      -0.00001     0.00000    -0.00000     0.00000     0.00001    -0.00006
  51      -0.01692     0.00000    -0.00000     0.00000    -0.04361    -0.08357
  52      -0.00000     0.00563    -0.00823     0.00262    -0.00000     0.00000
  53       0.00000    -0.00034    -0.00313    -0.01000     0.00000    -0.00000
  54      -0.00000     0.00860     0.00537    -0.00238    -0.00000     0.00000
  55      -0.03803     0.00000    -0.00000     0.00000     0.06970     0.08073
  56       0.00000    -0.00286     0.00550    -0.00800     0.00000    -0.00000
  57       0.00000    -0.00776    -0.00438     0.00313     0.00000    -0.00000
  58      -0.00000    -0.00216     0.00532     0.00681    -0.00000     0.00000
  59       0.02432     0.00000    -0.00000     0.00000    -0.02558    -0.04078

            7           8           9          10          11          12  
       ----------- ----------- ----------- ----------- ----------- -----------
   1       0.00000     0.00000     0.00000    -0.00000    -0.31937    -0.00000
   2       0.07348    -0.03717     0.04321     0.00012    -0.00000     0.00011
   3       0.05661     0.03792    -0.06336     0.00022     0.00000    -0.00001
   4       0.00727     0.07658     0.05293    -0.00026    -0.00000    -0.00002
   5       0.00000     0.00000     0.00000    -0.00000     0.07177    -0.00000
   6      -0.00000    -0.00000    -0.00000     0.00000     0.32267     0.00000
   7       2.75798    -0.00160    -0.00152     0.00045     0.00000     0.00007
   8      -0.00160     2.75983     0.00262    -0.00029     0.00000    -0.00001
   9      -0.00152     0.00262     2.75954    -0.00048     0.00000    -0.00003
  10       0.00045    -0.00029    -0.00048     0.76398    -0.00000     0.00006
  11       0.00000     0.00000     0.00000    -0.00000     1.85648    -0.00000
  12       0.00007    -0.00001    -0.00003     0.00006    -0.00000     0.76270
  13      -0.00007     0.00010     0.00037    -0.00021    -0.00000     0.00155
  14       0.00027    -0.00014    -0.00008     0.00023     0.00000     0.00194
  15      -0.00000    -0.00000    -0.00000     0.00000     0.00009    -0.00000
  16      -0.00000    -0.00000    -0.00000     0.00000     0.00016     0.00000
  17       0.00000     0.00000     0.00000    -0.00000     0.00035    -0.00000
  18      -0.30111    -0.06984    -0.18607     0.00066     0.00000    -0.00001
  19       0.19059    -0.19670    -0.23513    -0.00326     0.00000    -0.00015
  20       0.05575     0.29461    -0.20068    -0.00091     0.00000    -0.00053
  21      -0.00026     0.00048     0.00043    -0.28715    -0.00000     0.00000
  22      -0.00000    -0.00000    -0.00000     0.00000    -0.00014    -0.00000
  23      -0.00000    -0.00000     0.00000     0.00000    -0.00016    -0.00000
  24      -0.00017     0.00011     0.00030     0.00003    -0.00000     0.00089
  25       0.00031    -0.00020    -0.00026    -0.00006    -0.00000     0.05474
  26      -0.00010     0.00008    -0.00012     0.00001     0.00000     0.28131
  27       0.00000     0.00000     0.00000    -0.00000     0.00041     0.00000
  28       0.00000     0.00000     0.00000    -0.00000    -0.00070    -0.00000
  29       0.00000     0.00000     0.00000    -0.00000     0.00028     0.00000
  30      -0.52788     0.03786    -0.02450     0.00129    -0.00000     0.00023
  31      -0.04412    -0.49050     0.19565     0.00007    -0.00000    -0.00004
  32       0.00847    -0.19719    -0.49176    -0.00139    -0.00000    -0.00001
  33      -0.05013    -0.31050     0.55327     0.00021    -0.00000    -0.00105
  34       0.03569    -0.55599    -0.30901    -0.00046     0.00000    -0.00028
  35       0.63345     0.00648     0.06077    -0.00025    -0.00000    -0.00072
  36       0.00000     0.00000     0.00000    -0.00000    -0.00019    -0.00000
  37       0.15569    -0.31031     0.27336     0.00004     0.00000    -0.00004
  38       0.40252     0.18067    -0.02411     0.00038     0.00000     0.00005
  39       0.09573    -0.25857    -0.34706     0.00062    -0.00000     0.00004
  40       0.00000     0.00000     0.00000    -0.00000    -0.00012    -0.00000
  41       0.00000     0.00000     0.00000    -0.00000    -0.00044     0.00000
  42       0.00000     0.00000     0.00000    -0.00000    -0.00010     0.00000
  43      -0.00000    -0.00000    -0.00000     0.00000    -0.00022    -0.00000
  44       0.00000     0.00000     0.00000    -0.00000    -0.00028    -0.00000
  45      -0.00000    -0.00000    -0.00000     0.00000    -0.93266     0.00000
  46      -0.00410     0.00031     0.00004    -0.00105     0.00000    -0.00073
  47       0.00067    -0.00176    -0.00432     0.00137     0.00000    -0.00042
  48      -0.00016     0.00379    -0.00097    -0.00018    -0.00000    -0.00081
  49      -0.00000    -0.00000    -0.00000     0.00000    -0.00018    -0.00000
  50      -0.00000    -0.00000    -0.00000     0.00000    -0.00009    -0.00000
  51      -0.00000    -0.00000    -0.00000     0.00000     0.48901     0.00000
  52      -0.01108    -0.13300     0.35955    -0.00028    -0.00000     0.00024
  53      -0.11525    -0.34214    -0.13127     0.00019     0.00000     0.00003
  54       0.36566    -0.11301    -0.03154     0.00042    -0.00000     0.00022
  55      -0.00000    -0.00000    -0.00000     0.00000    -0.08247     0.00000
  56       0.00195     0.01572     0.06975    -0.00103     0.00000     0.00075
  57       0.06607    -0.02386    -0.00196     0.00120     0.00000     0.00094
  58      -0.02006    -0.06490     0.01160    -0.00026    -0.00000     0.00054
  59      -0.00000    -0.00000    -0.00000     0.00000    -0.01630     0.00000

           13          14          15          16          17          18  
       ----------- ----------- ----------- ----------- ----------- -----------
   1      -0.00000    -0.00000     0.00001     0.00003     0.00006     0.00000
   2       0.00005     0.00014     0.00000     0.00000    -0.00000     0.01648
   3      -0.00009     0.00003    -0.00000    -0.00000     0.00000     0.00473
   4       0.00026    -0.00017     0.00000     0.00000    -0.00000     0.01023
   5      -0.00000    -0.00000    -0.00002    -0.00003    -0.00007     0.00000
   6       0.00000     0.00000     0.00018     0.00033     0.00074    -0.00000
   7      -0.00007     0.00027    -0.00000    -0.00000     0.00000    -0.30111
   8       0.00010    -0.00014    -0.00000    -0.00000     0.00000    -0.06984
   9       0.00037    -0.00008    -0.00000    -0.00000     0.00000    -0.18607
  10      -0.00021     0.00023     0.00000     0.00000    -0.00000     0.00066
  11      -0.00000     0.00000     0.00009     0.00016     0.00035     0.00000
  12       0.00155     0.00194    -0.00000     0.00000    -0.00000    -0.00001
  13       0.76510    -0.00016     0.00000     0.00000    -0.00000     0.00029
  14      -0.00016     0.76378    -0.00000     0.00000     0.00000     0.00124
  15       0.00000    -0.00000     0.60166     0.00042     0.00113    -0.00000
  16       0.00000     0.00000     0.00042     0.60308     0.00101    -0.00000
  17      -0.00000     0.00000     0.00113     0.00101     0.60460     0.00000
  18       0.00029     0.00124    -0.00000    -0.00000     0.00000     0.81974
  19       0.00083    -0.00075    -0.00000    -0.00000     0.00000     0.00014
  20       0.00134    -0.00049    -0.00000    -0.00000     0.00000    -0.00033
  21      -0.00006     0.00003     0.00000     0.00000    -0.00000    -0.00037
  22       0.00000    -0.00000     0.00008     0.00051    -0.00125    -0.00000
  23       0.00000    -0.00000     0.00042    -0.00094    -0.00067    -0.00000
  24       0.00233    -0.28717     0.00000    -0.00000     0.00000    -0.00069
  25      -0.28222    -0.00152    -0.00000     0.00000    -0.00000    -0.00033
  26       0.05669     0.00341    -0.00000    -0.00000    -0.00000     0.00002
  27      -0.00000     0.00000     0.26456     0.08702     0.04811     0.00000
  28      -0.00000    -0.00000     0.04268     0.02194    -0.27887     0.00000
  29      -0.00000    -0.00000    -0.08917     0.26811     0.00771     0.00000
  30       0.00022     0.00081     0.00000     0.00000    -0.00000     0.31140
  31      -0.00025    -0.00036     0.00000     0.00000    -0.00000     0.02134
  32       0.00100    -0.00008     0.00000     0.00000    -0.00000     0.19868
  33      -0.00023    -0.00076     0.00000     0.00000    -0.00000    -0.00015
  34       0.00148    -0.00119    -0.00000    -0.00000     0.00000    -0.00102
  35      -0.00086    -0.00009     0.00000     0.00000    -0.00000     0.00060
  36      -0.00000     0.00000     0.00051     0.00092     0.00211     0.00000
  37       0.00021     0.00017    -0.00000    -0.00000     0.00000    -0.03253
  38      -0.00002     0.00024    -0.00000    -0.00000     0.00000    -0.05535
  39      -0.00028     0.00012     0.00000     0.00000    -0.00000     0.02303
  40      -0.00000     0.00000    -0.00003     0.00017    -0.00018     0.00000
  41      -0.00000    -0.00000     0.00007    -0.00014    -0.00028     0.00000
  42      -0.00000    -0.00000    -0.05013     0.00116    -0.00406     0.00000
  43       0.00000    -0.00000     0.00315     0.02360    -0.04520    -0.00000
  44      -0.00000     0.00000    -0.00007    -0.04563    -0.02365     0.00000
  45       0.00000    -0.00000    -0.00002    -0.00003    -0.00008    -0.00000
  46      -0.00075    -0.00062    -0.00000    -0.00000     0.00000     0.00908
  47      -0.00171     0.00039    -0.00000    -0.00000     0.00000     0.00586
  48       0.00050    -0.00132     0.00000     0.00000    -0.00000    -0.00118
  49       0.00000    -0.00000     0.00072    -0.00028     0.00018    -0.00000
  50       0.00000     0.00000     0.00012     0.00101    -0.00047    -0.00000
  51       0.00000     0.00000    -0.00009    -0.00016    -0.00035    -0.00000
  52       0.00031     0.00015     0.00000     0.00000    -0.00000    -0.07148
  53      -0.00047     0.00029    -0.00000    -0.00000     0.00000     0.10964
  54       0.00005     0.00030     0.00000     0.00000    -0.00000    -0.12699
  55       0.00000    -0.00000     0.00017     0.00031     0.00069    -0.00000
  56       0.00166     0.00012    -0.00000    -0.00000     0.00000    -0.02726
  57       0.00062     0.00100    -0.00000    -0.00000     0.00000    -0.03333
  58      -0.00076     0.00109     0.00000     0.00000    -0.00000     0.01632
  59       0.00000     0.00000    -0.00056    -0.00100    -0.00228    -0.00000

           19          20          21          22          23          24  
       ----------- ----------- ----------- ----------- ----------- -----------
   1       0.00000     0.00000    -0.00000    -0.00002    -0.00003    -0.00000
   2      -0.00674     0.00918     0.00007     0.00000    -0.00000     0.00012
   3      -0.01106    -0.01614     0.00015    -0.00000     0.00000    -0.00002
   4       0.01576    -0.00711    -0.00012     0.00000     0.00000    -0.00010
   5       0.00000     0.00000    -0.00000     0.00003     0.00003    -0.00000
   6      -0.00000    -0.00000     0.00000    -0.00029    -0.00033     0.00000
   7       0.19059     0.05575    -0.00026    -0.00000    -0.00000    -0.00017
   8      -0.19670     0.29461     0.00048    -0.00000    -0.00000     0.00011
   9      -0.23513    -0.20068     0.00043    -0.00000     0.00000     0.00030
  10      -0.00326    -0.00091    -0.28715     0.00000     0.00000     0.00003
  11       0.00000     0.00000    -0.00000    -0.00014    -0.00016    -0.00000
  12      -0.00015    -0.00053     0.00000    -0.00000    -0.00000     0.00089
  13       0.00083     0.00134    -0.00006     0.00000     0.00000     0.00233
  14      -0.00075    -0.00049     0.00003    -0.00000    -0.00000    -0.28717
  15      -0.00000    -0.00000     0.00000     0.00008     0.00042     0.00000
  16      -0.00000    -0.00000     0.00000     0.00051    -0.00094    -0.00000
  17       0.00000     0.00000    -0.00000    -0.00125    -0.00067     0.00000
  18       0.00014    -0.00033    -0.00037    -0.00000    -0.00000    -0.00069
  19       0.82160    -0.00016     0.00163    -0.00000    -0.00000     0.00033
  20      -0.00016     0.82019     0.00049     0.00000     0.00000     0.00007
  21       0.00163     0.00049     0.49108     0.00000     0.00000     0.00039
  22      -0.00000     0.00000     0.00000     0.60256     0.00092     0.00000
  23      -0.00000     0.00000     0.00000     0.00092     0.60312     0.00000
  24       0.00033     0.00007     0.00039     0.00000     0.00000     0.49070
  25      -0.00034    -0.00067    -0.00034     0.00000     0.00000     0.00011
  26      -0.00001    -0.00014    -0.00005    -0.00000     0.00000    -0.00066
  27       0.00000     0.00000    -0.00000    -0.00001    -0.00002    -0.00000
  28       0.00000     0.00000    -0.00000     0.00029     0.00016    -0.00000
  29       0.00000    -0.00000    -0.00000     0.00008    -0.00022     0.00000
  30      -0.19888    -0.02589    -0.00075     0.00000     0.00000    -0.00046
  31       0.08143    -0.36008     0.00025     0.00000     0.00000    -0.00043
  32       0.30311     0.07984     0.00108     0.00000     0.00000     0.00017
  33      -0.00106     0.00110    -0.00009     0.00000    -0.00000     0.00065
  34       0.00101     0.00192    -0.00013    -0.00000    -0.00000     0.00063
  35       0.00106    -0.00031     0.00009     0.00000     0.00000    -0.00001
  36       0.00000     0.00000    -0.00000    -0.00084    -0.00094    -0.00000
  37       0.01128    -0.05890     0.00005    -0.00000     0.00000     0.00023
  38       0.02002     0.03448    -0.00009    -0.00000    -0.00000    -0.00022
  39       0.06434    -0.00053     0.00013     0.00000     0.00000     0.00034
  40       0.00000     0.00000    -0.00000     0.25405    -0.12350    -0.00000
  41       0.00000    -0.00000    -0.00000     0.12381     0.25433     0.00000
  42       0.00000     0.00000    -0.00000    -0.00025    -0.00070     0.00000
  43      -0.00000    -0.00000     0.00000     0.00080    -0.00046     0.00000
  44       0.00000     0.00000    -0.00000    -0.00061     0.00034    -0.00000
  45      -0.00000    -0.00000     0.00000     0.00003     0.00004    -0.00000
  46      -0.00420    -0.00132     0.00091    -0.00000    -0.00000     0.00053
  47       0.00782     0.00183    -0.00101    -0.00000    -0.00000    -0.00016
  48      -0.00354     0.01160    -0.00002     0.00000     0.00000     0.00110
  49      -0.00000     0.00000     0.00000     0.01339     0.04987     0.00000
  50      -0.00000    -0.00000     0.00000     0.04913    -0.01245    -0.00000
  51      -0.00000    -0.00000     0.00000     0.00014     0.00016    -0.00000
  52      -0.07937    -0.14771     0.00025     0.00000    -0.00000    -0.00028
  53       0.10023    -0.10703     0.00002    -0.00000    -0.00000    -0.00019
  54       0.13047    -0.00872    -0.00034     0.00000     0.00000    -0.00025
  55      -0.00000    -0.00000     0.00000    -0.00028    -0.00031     0.00000
  56      -0.03209    -0.01703     0.00019    -0.00000    -0.00000     0.00067
  57       0.02990    -0.00552     0.00012    -0.00000    -0.00000     0.00018
  58       0.01094    -0.04349    -0.00068     0.00000     0.00000     0.00021
  59      -0.00000    -0.00000     0.00000     0.00090     0.00102    -0.00000

           25          26          27          28          29          30  
       ----------- ----------- ----------- ----------- ----------- -----------
   1      -0.00000     0.00000     0.00020    -0.00035     0.00014    -0.00000
   2       0.00008    -0.00015    -0.00000    -0.00000    -0.00000     0.01738
   3      -0.00002     0.00004     0.00000     0.00000     0.00000     0.01128
   4       0.00018    -0.00003    -0.00000    -0.00000    -0.00000     0.00112
   5      -0.00000     0.00000     0.00033    -0.00056     0.00022    -0.00000
   6       0.00000    -0.00000     0.00008    -0.00015     0.00006     0.00000
   7       0.00031    -0.00010     0.00000     0.00000     0.00000    -0.52788
   8      -0.00020     0.00008     0.00000     0.00000     0.00000     0.03786
   9      -0.00026    -0.00012     0.00000     0.00000     0.00000    -0.02450
  10      -0.00006     0.00001    -0.00000    -0.00000    -0.00000     0.00129
  11      -0.00000     0.00000     0.00041    -0.00070     0.00028    -0.00000
  12       0.05474     0.28131     0.00000    -0.00000     0.00000     0.00023
  13      -0.28222     0.05669    -0.00000    -0.00000    -0.00000     0.00022
  14      -0.00152     0.00341     0.00000    -0.00000    -0.00000     0.00081
  15      -0.00000    -0.00000     0.26456     0.04268    -0.08917     0.00000
  16       0.00000    -0.00000     0.08702     0.02194     0.26811     0.00000
  17      -0.00000    -0.00000     0.04811    -0.27887     0.00771    -0.00000
  18      -0.00033     0.00002     0.00000     0.00000     0.00000     0.31140
  19      -0.00034    -0.00001     0.00000     0.00000     0.00000    -0.19888
  20      -0.00067    -0.00014     0.00000     0.00000    -0.00000    -0.02589
  21      -0.00034    -0.00005    -0.00000    -0.00000    -0.00000    -0.00075
  22       0.00000    -0.00000    -0.00001     0.00029     0.00008     0.00000
  23       0.00000     0.00000    -0.00002     0.00016    -0.00022     0.00000
  24       0.00011    -0.00066    -0.00000    -0.00000     0.00000    -0.00046
  25       0.49110    -0.00075     0.00000    -0.00000     0.00000     0.00033
  26      -0.00075     0.49090     0.00000     0.00000     0.00000     0.00031
  27       0.00000     0.00000     0.39262    -0.00087     0.00046    -0.00000
  28      -0.00000     0.00000    -0.00087     0.39335    -0.00024    -0.00000
  29       0.00000     0.00000     0.00046    -0.00024     0.39272    -0.00000
  30       0.00033     0.00031    -0.00000    -0.00000    -0.00000     0.73137
  31       0.00046    -0.00006    -0.00000    -0.00000    -0.00000     0.00009
  32      -0.00037     0.00027    -0.00000    -0.00000    -0.00000    -0.00105
  33      -0.00007    -0.00057    -0.00000    -0.00000    -0.00000     0.00121
  34      -0.00076    -0.00004     0.00000     0.00000     0.00000    -0.03278
  35       0.00060    -0.00043    -0.00000    -0.00000    -0.00000    -0.32794
  36      -0.00000     0.00000     0.00024    -0.00042     0.00017    -0.00000
  37      -0.00025     0.00006     0.00000     0.00000     0.00000    -0.10152
  38       0.00019     0.00009     0.00000     0.00000     0.00000    -0.20599
  39      -0.00040    -0.00005    -0.00000    -0.00000    -0.00000    -0.05299
  40       0.00000     0.00000     0.00002     0.00045     0.00046    -0.00000
  41      -0.00000    -0.00000     0.00004     0.00056    -0.00038    -0.00000
  42       0.00000     0.00000    -0.13696    -0.01100     0.04898    -0.00000
  43       0.00000    -0.00000     0.00773     0.13542     0.05726     0.00000
  44       0.00000    -0.00000    -0.05159     0.05751    -0.12617    -0.00000
  45       0.00000    -0.00000    -0.00002     0.00004    -0.00002     0.00000
  46       0.00065    -0.00081     0.00000     0.00000     0.00000    -0.07423
  47       0.00125    -0.00068     0.00000     0.00000     0.00000     0.00336
  48      -0.00041    -0.00065    -0.00000    -0.00000    -0.00000    -0.00478
  49       0.00000     0.00000     0.00043     0.00045    -0.00083     0.00000
  50       0.00000    -0.00000     0.00025     0.00097     0.00100     0.00000
  51       0.00000    -0.00000    -0.00006     0.00010    -0.00004     0.00000
  52      -0.00026     0.00040    -0.00000    -0.00000    -0.00000    -0.01969
  53       0.00038    -0.00008     0.00000     0.00000     0.00000     0.12471
  54      -0.00021     0.00032    -0.00000    -0.00000    -0.00000    -0.47723
  55       0.00000    -0.00000     0.00005    -0.00009     0.00003     0.00000
  56       0.00018    -0.00064     0.00000     0.00000     0.00000    -0.00290
  57       0.00085    -0.00066     0.00000     0.00000     0.00000    -0.07159
  58       0.00004    -0.00021    -0.00000    -0.00000    -0.00000     0.01490
  59       0.00000    -0.00000    -0.00153     0.00263    -0.00105     0.00000

           31          32          33          34          35          36  
       ----------- ----------- ----------- ----------- ----------- -----------
[...]
  11       0.00006     0.00000     4.64468     2.30229     2.57282
  12       0.00011     0.00000    -0.93321    -3.31019     4.65863
  13       0.00001     0.00004     1.52998    -1.91139    -1.05299
  14       0.00001     0.00005    -2.13948    -1.06051    -1.18363
  15       0.00002     0.00008     0.42987     1.52477    -2.14321
  16      -0.00035    -0.00043     0.15189    -0.18975    -0.10473
  17      -0.00039    -0.00048    -0.21239    -0.10528    -0.11772
  18      -0.00072    -0.00088     0.04267     0.15137    -0.21316
  19       0.00002     0.00002     0.04075    -0.05091    -0.02790
  20       0.00002     0.00003    -0.05699    -0.02825    -0.03136
  21       0.00004     0.00005     0.01145     0.04062    -0.05679
  22      -1.64378    -8.03036    -0.00000    -0.00000    -0.00032
  23       0.00139     0.00205    -0.00000    -0.00000     0.00000
  24       0.00252     0.00371     0.00000    -0.00000     0.00000
  25      -1.64361    -8.03012    -0.00000    -0.00000    -0.00032
  26       0.00283     0.00417    -0.00000    -0.00000     0.00000
  27      -1.64183    -8.02749    -0.00000    -0.00000    -0.00032
  28      -0.84099    -6.94779    -0.00000    -0.00000    -0.00022
  29       0.00191    -0.00297     0.00000     0.00000    -0.00000
  30       0.00346    -0.00537    -0.00000     0.00000    -0.00000
  31      -0.84077    -6.94814    -0.00000    -0.00000    -0.00022
  32       0.00389    -0.00604     0.00000     0.00000    -0.00000
  33      -0.83832    -6.95194    -0.00000    -0.00000    -0.00022
  34       1.43339    -1.54765    -0.00000    -0.00000    -0.00007
  35      -0.00089    -0.00075     0.00000     0.00000    -0.00000
  36      -0.00162    -0.00135    -0.00000     0.00000    -0.00000
  37       1.43329    -1.54774    -0.00000    -0.00000    -0.00007
  38      -0.00182    -0.00152     0.00000     0.00000    -0.00000
  39       1.43214    -1.54869    -0.00000    -0.00000    -0.00007
  40       0.00003     0.00007     1.77915    -2.22267    -1.22667
  41       0.00003     0.00008    -2.48942    -1.23132    -1.37788
  42       0.00006     0.00015     0.49713     1.77652    -2.49495
  43       0.00003     0.00007     1.78109    -2.22139    -1.22545
  44      -0.00000    -0.00000     0.00033     0.00425     0.00600
  45       0.00003     0.00007     1.77626    -2.22275    -1.22168
  46       0.00003     0.00008    -2.48766    -1.23309    -1.37873
  47       0.00006     0.00015     0.50414     1.77505    -2.49424
  48       0.00003     0.00008    -2.48581    -1.23482    -1.37324
  49       0.00006     0.00015     0.49928     1.77098    -2.49393
  50       0.00018     0.00022    -0.19115     0.23880     0.13201
  51       0.00021     0.00025     0.26805     0.13156     0.14788
  52       0.00038     0.00045    -0.05235    -0.19220     0.26776
  53       0.00018     0.00022    -0.19211     0.23817     0.13138
  54       0.00000     0.00000    -0.00016    -0.00210    -0.00314
  55       0.00018     0.00022    -0.18972     0.23884     0.12940
  56       0.00021     0.00025     0.26717     0.13243     0.14832
  57       0.00038     0.00045    -0.05582    -0.19147     0.26740
  58       0.00021     0.00025     0.26626     0.13329     0.14546
  59       0.00038     0.00045    -0.05341    -0.18945     0.26723
  int_init: cando_txs set to always be  F
                                NWChem TDDFT Module
                                -------------------


            General Information
            -------------------
           No. of orbitals :     118
            Alpha orbitals :      59
             Beta orbitals :      59
        Alpha frozen cores :       0
         Beta frozen cores :       0
     Alpha frozen virtuals :       0
      Beta frozen virtuals :       0
         Spin multiplicity :       2
    Number of AO functions :      59
        Use of symmetry is : off
      Symmetry adaption is : off
         Schwarz screening :  0.10D-07

              XC Information
              --------------
              Hartree-Fock (Exact) Exchange   1.00          
              LC-wPBE(h)Exchange Functional   1.00          
     Perdew 1991 LDA Correlation Functional   1.00 local    
    PerdewBurkeErnz. Correlation Functional   1.00 non-local
           Alpha           :  0.00
           Beta            :  1.00
           Gamma           :  0.40

             TDDFT Information
             -----------------
          Calculation type : TDDFT             
         Wavefunction type : Unrestricted
          No. of electrons :      13
           Alpha electrons :       7
            Beta electrons :       6
              No. of roots :       5
          Max subspacesize :    5000
            Max iterations :     100
               Target root :       1
           Target symmetry : none
      Symmetry restriction : off
                 Algorithm : Optimal
        Davidson threshold :  0.10D-03

            Memory Information
            ------------------
          Available GA space size is       52428793038 doubles
          Available MA space size is        4194415692 doubles
          Length of a trial vector is          364     318
          Algorithm : Incore multiple tensor contraction
          Estimated peak GA usage is          14231628 doubles
          Estimated peak MA usage is             18000 doubles

    5 smallest eigenvalue differences (eV) 
--------------------------------------------------------
  No. Spin  Occ  Vir  Irrep   E(Occ)    E(Vir)   E(Diff)
--------------------------------------------------------
    1    1    7    8 a        -0.228    -0.006     6.040
    2    1    7    9 a        -0.228    -0.006     6.040
    3    1    7   10 a        -0.228     0.024     6.846
    4    1    7   11 a        -0.228     0.042     7.349
    5    1    7   12 a        -0.228     0.048     7.491
--------------------------------------------------------

  Entering Davidson iterations
  Unrestricted

  Iter   NTrls   NConv    DeltaV     DeltaE      Time   
  ----  ------  ------  ---------  ---------  --------- 
    1      5       0     0.71E-01   0.10+100        3.6
    2     15       0     0.31E-01   0.24E-01        4.9
    3     25       0     0.14E-01   0.18E-02        5.0
    4     34       0     0.21E-02   0.15E-03        4.7
    5     42       2     0.36E-03   0.41E-05        4.3
    6     47       4     0.12E-03   0.19E-06        3.1
    7     49       5     0.55E-04   0.12E-07        2.0
  ----  ------  ------  ---------  ---------  --------- 
  Convergence criterion met

  Ground state a        -242.253553621776 a.u.
  <S2> =   0.7614

  ----------------------------------------------------------------------------
  Root   1         a              0.000085152 a.u.                0.0023 eV 
  <S2> =   0.7627
  ----------------------------------------------------------------------------
     Transition Moments    X  0.00000   Y -0.00000   Z  0.00000
     Transition Moments   XX -5.04624  XY  5.36373  XZ -8.42435
     Transition Moments   YY 18.43440  YZ 12.99278  ZZ-13.38817
     Dipole Oscillator Strength                    0.0000000000
     Electric Quadrupole                           0.0000000000
     Magnetic Dipole                               0.0000000000
     Total Oscillator Strength                     0.0000000000

     Occ.    6 alpha a   ---  Virt.   14 alpha a   -0.18564 X
     Occ.    6 alpha a   ---  Virt.   14 alpha a   -0.18529 Y
     Occ.    6 alpha a   ---  Virt.   15 alpha a    0.20904 X
     Occ.    6 alpha a   ---  Virt.   15 alpha a    0.20864 Y
     Occ.    6 alpha a   ---  Virt.   23 alpha a   -0.20504 X
     Occ.    6 alpha a   ---  Virt.   23 alpha a   -0.20470 Y
     Occ.    6 alpha a   ---  Virt.   24 alpha a    0.23001 X
     Occ.    6 alpha a   ---  Virt.   24 alpha a    0.22964 Y
     Occ.    7 alpha a   ---  Virt.    8 alpha a   -3.89749 X
     Occ.    7 alpha a   ---  Virt.    8 alpha a   -3.79386 Y
     Occ.    7 alpha a   ---  Virt.    9 alpha a   -1.18923 X
     Occ.    7 alpha a   ---  Virt.    9 alpha a   -1.15760 Y
     Occ.    7 alpha a   ---  Virt.   12 alpha a   -1.40857 X
     Occ.    7 alpha a   ---  Virt.   12 alpha a   -1.37168 Y
     Occ.    7 alpha a   ---  Virt.   13 alpha a   -0.42933 X
     Occ.    7 alpha a   ---  Virt.   13 alpha a   -0.41809 Y
     Occ.    7 alpha a   ---  Virt.   21 alpha a    0.50762 X
     Occ.    7 alpha a   ---  Virt.   21 alpha a    0.49424 Y
     Occ.    7 alpha a   ---  Virt.   22 alpha a    0.16363 X
     Occ.    7 alpha a   ---  Virt.   22 alpha a    0.15932 Y
     Occ.    7 alpha a   ---  Virt.   36 alpha a   -0.13260 X
     Occ.    7 alpha a   ---  Virt.   36 alpha a   -0.12908 Y
     Occ.    6 beta  a   ---  Virt.   17 beta  a    0.10196 X
     Occ.    6 beta  a   ---  Virt.   17 beta  a    0.10190 Y
     Occ.    6 beta  a   ---  Virt.   18 beta  a   -0.11458 X
     Occ.    6 beta  a   ---  Virt.   18 beta  a   -0.11452 Y
     Occ.    6 beta  a   ---  Virt.   25 beta  a    0.21181 X
     Occ.    6 beta  a   ---  Virt.   25 beta  a    0.21173 Y
     Occ.    6 beta  a   ---  Virt.   26 beta  a   -0.23643 X
     Occ.    6 beta  a   ---  Virt.   26 beta  a   -0.23634 Y
     Occ.    6 beta  a   ---  Virt.   42 beta  a    0.09118 X
     Occ.    6 beta  a   ---  Virt.   42 beta  a    0.09116 Y
     Occ.    6 beta  a   ---  Virt.   43 beta  a   -0.10147 X
     Occ.    6 beta  a   ---  Virt.   43 beta  a   -0.10145 Y
  ----------------------------------------------------------------------------
  Root   2         a              0.000085161 a.u.                0.0023 eV 
  <S2> =   0.7627
  ----------------------------------------------------------------------------
     Transition Moments    X -0.00000   Y -0.00000   Z  0.00000
     Transition Moments   XX 16.10840  XY  9.78300  XZ 12.03316
     Transition Moments   YY  1.64011  YZ -3.41609  ZZ-17.74852
     Dipole Oscillator Strength                    0.0000000000
     Electric Quadrupole                           0.0000000000
     Magnetic Dipole                               0.0000000000
     Total Oscillator Strength                     0.0000000000

     Occ.    6 alpha a   ---  Virt.   14 alpha a   -0.20903 X
     Occ.    6 alpha a   ---  Virt.   14 alpha a   -0.20863 Y
     Occ.    6 alpha a   ---  Virt.   15 alpha a   -0.18563 X
     Occ.    6 alpha a   ---  Virt.   15 alpha a   -0.18528 Y
     Occ.    6 alpha a   ---  Virt.   23 alpha a   -0.23000 X
     Occ.    6 alpha a   ---  Virt.   23 alpha a   -0.22962 Y
     Occ.    6 alpha a   ---  Virt.   24 alpha a   -0.20503 X
     Occ.    6 alpha a   ---  Virt.   24 alpha a   -0.20469 Y
     Occ.    7 alpha a   ---  Virt.    8 alpha a    1.18916 X
     Occ.    7 alpha a   ---  Virt.    8 alpha a    1.15754 Y
     Occ.    7 alpha a   ---  Virt.    9 alpha a   -3.89729 X
     Occ.    7 alpha a   ---  Virt.    9 alpha a   -3.79365 Y
     Occ.    7 alpha a   ---  Virt.   12 alpha a    0.42931 X
     Occ.    7 alpha a   ---  Virt.   12 alpha a    0.41807 Y
     Occ.    7 alpha a   ---  Virt.   13 alpha a   -1.40849 X
     Occ.    7 alpha a   ---  Virt.   13 alpha a   -1.37159 Y
     Occ.    7 alpha a   ---  Virt.   21 alpha a   -0.16362 X
     Occ.    7 alpha a   ---  Virt.   21 alpha a   -0.15931 Y
     Occ.    7 alpha a   ---  Virt.   22 alpha a    0.50760 X
     Occ.    7 alpha a   ---  Virt.   22 alpha a    0.49422 Y
     Occ.    7 alpha a   ---  Virt.   37 alpha a   -0.13260 X
     Occ.    7 alpha a   ---  Virt.   37 alpha a   -0.12907 Y
     Occ.    6 beta  a   ---  Virt.   17 beta  a    0.11458 X
     Occ.    6 beta  a   ---  Virt.   17 beta  a    0.11451 Y
     Occ.    6 beta  a   ---  Virt.   18 beta  a    0.10195 X
     Occ.    6 beta  a   ---  Virt.   18 beta  a    0.10190 Y
     Occ.    6 beta  a   ---  Virt.   25 beta  a    0.23642 X
     Occ.    6 beta  a   ---  Virt.   25 beta  a    0.23633 Y
     Occ.    6 beta  a   ---  Virt.   26 beta  a    0.21180 X
     Occ.    6 beta  a   ---  Virt.   26 beta  a    0.21172 Y
     Occ.    6 beta  a   ---  Virt.   42 beta  a    0.10147 X
     Occ.    6 beta  a   ---  Virt.   42 beta  a    0.10145 Y
     Occ.    6 beta  a   ---  Virt.   43 beta  a    0.09118 X
     Occ.    6 beta  a   ---  Virt.   43 beta  a    0.09116 Y
  ----------------------------------------------------------------------------
  Root   3         a              0.125654624 a.u.                3.4192 eV 
  <S2> =   0.7682
  ----------------------------------------------------------------------------
     Transition Moments    X -0.52771   Y -0.59318   Z -1.07408
     Transition Moments   XX  0.00001  XY  0.00000  XZ  0.00000
     Transition Moments   YY  0.00001  YZ  0.00001  ZZ  0.00002
     Dipole Oscillator Strength                    0.1494441029
     Electric Quadrupole                           0.0000000000
     Magnetic Dipole                               0.0000000000
     Total Oscillator Strength                     0.1494441029

     Occ.    6 alpha a   ---  Virt.   11 alpha a   -0.05583 X
     Occ.    6 alpha a   ---  Virt.   20 alpha a    0.05166 X
     Occ.    7 alpha a   ---  Virt.   10 alpha a    0.88856 X
     Occ.    7 alpha a   ---  Virt.   16 alpha a    0.08555 X
     Occ.    7 alpha a   ---  Virt.   19 alpha a   -0.43584 X
     Occ.    7 alpha a   ---  Virt.   35 alpha a    0.08565 X
  ----------------------------------------------------------------------------
  Root   4         a              0.160094594 a.u.                4.3564 eV 
  <S2> =   0.7722
  ----------------------------------------------------------------------------
     Transition Moments    X -0.00001   Y -0.00001   Z -0.00002
     Transition Moments   XX -2.14319  XY -0.67004  XZ -1.21347
     Transition Moments   YY -2.29989  YZ -1.36363  ZZ -4.01649
     Dipole Oscillator Strength                    0.0000000001
     Electric Quadrupole                           0.0000001062
     Magnetic Dipole                               0.0000000000
     Total Oscillator Strength                     0.0000001063

     Occ.    7 alpha a   ---  Virt.   11 alpha a   -0.98134 X
     Occ.    7 alpha a   ---  Virt.   20 alpha a    0.17021 X
  ----------------------------------------------------------------------------
  Root   5         a              0.160407210 a.u.                4.3649 eV 
  <S2> =   0.7629
  ----------------------------------------------------------------------------
     Transition Moments    X -0.00000   Y  0.00000   Z -0.00000
     Transition Moments   XX  0.76076  XY -0.18221  XZ  0.92424
     Transition Moments   YY -1.37156  YZ -1.07317  ZZ  0.60928
     Dipole Oscillator Strength                    0.0000000000
     Electric Quadrupole                           0.0000000759
     Magnetic Dipole                               0.0000000000
     Total Oscillator Strength                     0.0000000759

     Occ.    7 alpha a   ---  Virt.    8 alpha a    0.35384 X
     Occ.    7 alpha a   ---  Virt.   12 alpha a   -0.91285 X
     Occ.    7 alpha a   ---  Virt.   21 alpha a    0.19685 X

              Target root =      1
          Target symmetry = none
      Ground state energy =   -242.253553621776
        Excitation energy =      0.000085151998
     Excited state energy =   -242.253468469778

  stored tddft:energy   -242.25346846977826     

 Task  times  cpu:       28.4s     wall:       33.4s


                                NWChem Input Module
                                -------------------


 Summary of allocated global arrays
-----------------------------------
  No active global arrays


MA_summarize_allocated_blocks: starting scan ...
heap block 'gridpts', handle 38, address 0x12575e28:
	type of elements:		double precision
	number of elements:		1048462957
	address of client space:	0x12575e80
	index for client space:		10307367
	total number of bytes:		8387703752
MA_summarize_allocated_blocks: scan completed: 1 heap block, 0 stack blocks
MA usage statistics:

	allocation statistics:
					      heap	     stack
					      ----	     -----
	current number of blocks	         1	         0
	maximum number of blocks	        18	        54
	current total bytes		8387703752	         0
	maximum total bytes		8388694016	  22513480
	maximum total K-bytes		   8388695	     22514
	maximum total M-bytes		      8389	        23


                                     CITATION
                                     --------
                Please cite the following reference when publishing
                           results obtained with NWChem:

          E. Apra, E. J. Bylaska, W. A. de Jong, N. Govind, K. Kowalski,
       T. P. Straatsma, M. Valiev, H. J. J. van Dam, Y. Alexeev, J. Anchell,
       V. Anisimov, F. W. Aquino, R. Atta-Fynn, J. Autschbach, N. P. Bauman,
     J. C. Becca, D. E. Bernholdt, K. Bhaskaran-Nair, S. Bogatko, P. Borowski,
         J. Boschen, J. Brabec, A. Bruner, E. Cauet, Y. Chen, G. N. Chuev,
      C. J. Cramer, J. Daily, M. J. O. Deegan, T. H. Dunning Jr., M. Dupuis,
   K. G. Dyall, G. I. Fann, S. A. Fischer, A. Fonari, H. Fruchtl, L. Gagliardi,
      J. Garza, N. Gawande, S. Ghosh, K. Glaesemann, A. W. Gotz, J. Hammond,
       V. Helms, E. D. Hermes, K. Hirao, S. Hirata, M. Jacquelin, L. Jensen,
   B. G. Johnson, H. Jonsson, R. A. Kendall, M. Klemm, R. Kobayashi, V. Konkov,
      S. Krishnamoorthy, M. Krishnan, Z. Lin, R. D. Lins, R. J. Littlefield,
      A. J. Logsdail, K. Lopata, W. Ma, A. V. Marenich, J. Martin del Campo,
   D. Mejia-Rodriguez, J. E. Moore, J. M. Mullin, T. Nakajima, D. R. Nascimento,
    J. A. Nichols, P. J. Nichols, J. Nieplocha, A. Otero-de-la-Roza, B. Palmer,
    A. Panyala, T. Pirojsirikul, B. Peng, R. Peverati, J. Pittner, L. Pollack,
   R. M. Richard, P. Sadayappan, G. C. Schatz, W. A. Shelton, D. W. Silverstein,
   D. M. A. Smith, T. A. Soares, D. Song, M. Swart, H. L. Taylor, G. S. Thomas,
            V. Tipparaju, D. G. Truhlar, K. Tsemekhman, T. Van Voorhis,
      A. Vazquez-Mayagoitia, P. Verma, O. Villa, A. Vishnu, K. D. Vogiatzis,
        D. Wang, J. H. Weare, M. J. Williamson, T. L. Windus, K. Wolinski,
        A. T. Wong, Q. Wu, C. Yang, Q. Yu, M. Zacharias, Z. Zhang, Y. Zhao,
                                and R. J. Harrison
                        "NWChem: Past, present, and future
                         J. Chem. Phys. 152, 184102 (2020)
                               doi:10.1063/5.0004997

                                      AUTHORS
                                      -------
  E. Apra, E. J. Bylaska, N. Govind, K. Kowalski, M. Valiev, D. Mejia-Rodriguez,
       A. Kunitsa, N. P. Bauman, A. Panyala, W. A. de Jong, T. P. Straatsma,
   H. J. J. van Dam, D. Wang, T. L. Windus, J. Hammond, J. Autschbach, A. Woods,
    K. Bhaskaran-Nair, J. Brabec, K. Lopata, S. A. Fischer, S. Krishnamoorthy,
     M. Jacquelin, W. Ma, M. Klemm, O. Villa, Y. Chen, V. Anisimov, F. Aquino,
     S. Hirata, M. T. Hackler, E. Hermes, L. Jensen, J. E. Moore, J. C. Becca,
      V. Konjkov, T. Risthaus, M. Malagoli, A. Marenich, A. Otero-de-la-Roza,
        J. Mullin, P. Nichols, R. Peverati, J. Pittner, Y. Zhao, P.-D. Fan,
        A. Fonari, M. J. Williamson, R. J. Harrison, J. R. Rehr, M. Dupuis,
     D. Silverstein, D. M. A. Smith, J. Nieplocha, V. Tipparaju, M. Krishnan,
     B. E. Van Kuiken, A. Vazquez-Mayagoitia, M. Swart, Q. Wu, T. Van Voorhis,
     A. A. Auer, M. Nooijen, L. D. Crosby, E. Brown, G. Cisneros, G. I. Fann,
   H. Fruchtl, J. Garza, K. Hirao, R. A. Kendall, J. A. Nichols, K. Tsemekhman,
    K. Wolinski, J. Anchell, D. E. Bernholdt, P. Borowski, T. Clark, D. Clerc,
   H. Dachsel, M. J. O. Deegan, K. Dyall, D. Elwood, E. Glendening, M. Gutowski,
   A. C. Hess, J. Jaffe, B. G. Johnson, J. Ju, R. Kobayashi, R. Kutteh, Z. Lin,
   R. Littlefield, X. Long, B. Meng, T. Nakajima, S. Niu, L. Pollack, M. Rosing,
   K. Glaesemann, G. Sandrone, M. Stave, H. Taylor, G. Thomas, J. H. van Lenthe,
                               A. T. Wong, Z. Zhang.

 Total times  cpu:       28.5s     wall:       33.8s
