 argument  1 = /home/aditisingh4812/nw_chem/nwchem-run/nwchem-run/tddft/open/open_atom/geom-MOL-0.4/as.nw
                                         
                                         


             Northwest Computational Chemistry Package (NWChem) 7.2.3
             --------------------------------------------------------


                    Environmental Molecular Sciences Laboratory
                       Pacific Northwest National Laboratory
                                Richland, WA 99352

                              Copyright (c) 1994-2022
                       Pacific Northwest National Laboratory
                            Battelle Memorial Institute

             NWChem is an open-source computational chemistry package
                        distributed under the terms of the
                      Educational Community License (ECL) 2.0
             A copy of the license is included with this distribution
                              in the LICENSE.TXT file

                                  ACKNOWLEDGMENT
                                  --------------

            This software and its documentation were developed at the
            EMSL at Pacific Northwest National Laboratory, a multiprogram
            national laboratory, operated for the U.S. Department of Energy
            by Battelle under Contract Number DE-AC05-76RL01830. Support
            for this work was provided by the Department of Energy Office
            of Biological and Environmental Research, Office of Basic
            Energy Sciences, and the Office of Advanced Scientific Computing.


           Job information
           ---------------

    hostname        = p17
    program         = /home/aditisingh4812/nw_chem/nwchem-7.2.3-release.revision-d690e065-srconly.2024-08-27/nwchem-7.2.3/bin/LINUX64/nwchem
    date            = Thu Apr 24 11:06:11 2025

    compiled        = Mon_Apr_07_18:51:54_2025
    source          = /home/aditisingh4812/nw_chem/nwchem-7.2.3-release.revision-d690e065-srconly.2024-08-27/nwchem-7.2.3
    nwchem branch   = 7.2.3
    nwchem revision = d690e065
    ga revision     = 5.8.0
    use scalapack   = F
    input           = /home/aditisingh4812/nw_chem/nwchem-run/nwchem-run/tddft/open/open_atom/geom-MOL-0.4/as.nw
    prefix          = as.
    data base       = ./as.db
    status          = startup
    nproc           =        8
    time left       =     -1s



           Memory information
           ------------------

    heap     = 2621440000 doubles =  20000.0 Mbytes
    stack    = 2621439997 doubles =  20000.0 Mbytes
    global   = 6553600000 doubles =  50000.0 Mbytes (distinct from heap & stack)
    total    = ********** doubles =  90000.0 Mbytes
    verify   = yes
    hardfail = no 


           Directory information
           ---------------------

  0 permanent = .
  0 scratch   = .




                                NWChem Input Module
                                -------------------



 Scaling coordinates for geometry "geometry" by  1.889725989
 (inverse scale =  0.529177249)



                             Geometry "geometry" -> ""
                             -------------------------

 Output coordinates in angstroms (scale by  1.889725989 to convert to a.u.)

  No.       Tag          Charge          X              Y              Z
 ---- ---------------- ---------- -------------- -------------- --------------
    1 As                  33.0000     0.00000000     0.00000000     0.00000000

      Atomic Mass 
      ----------- 

      As                74.921600


 Effective nuclear repulsion energy (a.u.)       0.0000000000

            Nuclear Dipole moment (a.u.) 
            ----------------------------
        X                 Y               Z
 ---------------- ---------------- ----------------
     0.0000000000     0.0000000000     0.0000000000


            XYZ format geometry
            -------------------
     1
 geometry
 As                    0.00000000     0.00000000     0.00000000



 Summary of "ao basis" -> "" (cartesian)
 ------------------------------------------------------------------------------
       Tag                 Description            Shells   Functions and Types
 ---------------- ------------------------------  ------  ---------------------
 *                        aug-cc-pVTZ                 on all atoms 


  pbe96 is a nonlocal functional; adding pw91lda local functional. 

                                 NWChem DFT Module
                                 -----------------


                      Basis "ao basis" -> "ao basis" (cartesian)
                      -----
  As (Arsenic)
  ------------
            Exponent  Coefficients 
       -------------- ---------------------------------------------------------
  1 S  8.48233960E+06  0.000007
  1 S  1.27015090E+06  0.000053
  1 S  2.89056960E+05  0.000277
  1 S  8.18798490E+04  0.001170
  1 S  2.67165640E+04  0.004242
  1 S  9.64758420E+03  0.013656
  1 S  3.76411950E+03  0.039340
  1 S  1.56156560E+03  0.099929
  1 S  6.80814670E+02  0.212156
  1 S  3.09241190E+02  0.336387
  1 S  1.45257360E+02  0.315513
  1 S  6.97390480E+01  0.118131
  1 S  3.17703250E+01  0.008008
  1 S  1.53917570E+01  0.000329
  1 S  7.34152600E+00 -0.000152
  1 S  3.32371600E+00  0.000025
  1 S  1.48586700E+00 -0.000037
  1 S  2.11500000E-01 -0.000009

  2 S  8.48233960E+06 -0.000002
  2 S  1.27015090E+06 -0.000017
  2 S  2.89056960E+05 -0.000087
  2 S  8.18798490E+04 -0.000365
  2 S  2.67165640E+04 -0.001331
  2 S  9.64758420E+03 -0.004309
  2 S  3.76411950E+03 -0.012697
  2 S  1.56156560E+03 -0.033616
  2 S  6.80814670E+02 -0.078947
  2 S  3.09241190E+02 -0.151446
  2 S  1.45257360E+02 -0.204201
  2 S  6.97390480E+01 -0.055737
  2 S  3.17703250E+01  0.418761
  2 S  1.53917570E+01  0.575876
  2 S  7.34152600E+00  0.169684
  2 S  3.32371600E+00  0.006066
  2 S  1.48586700E+00  0.001761
  2 S  2.11500000E-01  0.000232

  3 S  8.48233960E+06  0.000001
  3 S  1.27015090E+06  0.000006
  3 S  2.89056960E+05  0.000034
  3 S  8.18798490E+04  0.000142
  3 S  2.67165640E+04  0.000519
  3 S  9.64758420E+03  0.001680
  3 S  3.76411950E+03  0.004968
  3 S  1.56156560E+03  0.013212
  3 S  6.80814670E+02  0.031457
  3 S  3.09241190E+02  0.061845
  3 S  1.45257360E+02  0.087957
  3 S  6.97390480E+01  0.025755
  3 S  3.17703250E+01 -0.245546
  3 S  1.53917570E+01 -0.509057
  3 S  7.34152600E+00 -0.055575
  3 S  3.32371600E+00  0.708380
  3 S  1.48586700E+00  0.523103
  3 S  2.11500000E-01 -0.011118

  4 S  8.48233960E+06 -0.000000
  4 S  1.27015090E+06 -0.000002
  4 S  2.89056960E+05 -0.000009
  4 S  8.18798490E+04 -0.000039
  4 S  2.67165640E+04 -0.000143
  4 S  9.64758420E+03 -0.000463
  4 S  3.76411950E+03 -0.001369
  4 S  1.56156560E+03 -0.003644
  4 S  6.80814670E+02 -0.008688
  4 S  3.09241190E+02 -0.017156
  4 S  1.45257360E+02 -0.024551
  4 S  6.97390480E+01 -0.007352
  4 S  3.17703250E+01  0.072009
  4 S  1.53917570E+01  0.157625
  4 S  7.34152600E+00  0.014207
  4 S  3.32371600E+00 -0.285159
  4 S  1.48586700E+00 -0.388535
  4 S  2.11500000E-01  0.649534

  5 S  4.21086000E-01  1.000000

  6 S  8.89740000E-02  1.000000

  7 S  3.34070000E-02  1.000000

  8 P  7.42386140E+03  0.000460
  8 P  1.75951660E+03  0.003982
  8 P  5.70229160E+02  0.021464
  8 P  2.16579970E+02  0.082462
  8 P  9.07342520E+01  0.223890
  8 P  4.03087910E+01  0.392070
  8 P  1.85555020E+01  0.354224
  8 P  8.39654300E+00  0.104864
  8 P  3.76736700E+00  0.003366
  8 P  1.62970100E+00  0.001850
  8 P  2.22503000E-01  0.000230

  9 P  7.42386140E+03 -0.000179
  9 P  1.75951660E+03 -0.001564
  9 P  5.70229160E+02 -0.008500
  9 P  2.16579970E+02 -0.033633
  9 P  9.07342520E+01 -0.095323
  9 P  4.03087910E+01 -0.179363
  9 P  1.85555020E+01 -0.146668
  9 P  8.39654300E+00  0.196602
  9 P  3.76736700E+00  0.537209
  9 P  1.62970100E+00  0.385736
  9 P  2.22503000E-01 -0.005401

 10 P  7.42386140E+03  0.000040
 10 P  1.75951660E+03  0.000349
 10 P  5.70229160E+02  0.001895
 10 P  2.16579970E+02  0.007533
 10 P  9.07342520E+01  0.021432
 10 P  4.03087910E+01  0.040781
 10 P  1.85555020E+01  0.032525
 10 P  8.39654300E+00 -0.054883
 10 P  3.76736700E+00 -0.151192
 10 P  1.62970100E+00 -0.124901
 10 P  2.22503000E-01  0.585529

 11 P  5.68263000E-01  1.000000

 12 P  8.04050000E-02  1.000000

 13 P  2.67990000E-02  1.000000

 14 D  3.21019610E+02  0.001684
 14 D  9.62493050E+01  0.014159
 14 D  3.66449630E+01  0.062826
 14 D  1.54939650E+01  0.178499
 14 D  6.89113800E+00  0.320945
 14 D  3.05483100E+00  0.377352
 14 D  1.31424100E+00  0.275023

 15 D  5.13430000E-01  1.000000

 16 D  1.87700000E-01  1.000000

 17 D  7.00000000E-02  1.000000

 18 F  4.15800000E-01  1.000000

 19 F  1.69000000E-01  1.000000



 Summary of "ao basis" -> "ao basis" (cartesian)
 ------------------------------------------------------------------------------
       Tag                 Description            Shells   Functions and Types
 ---------------- ------------------------------  ------  ---------------------
 As                       aug-cc-pVTZ               19       69   7s6p4d2f




 Summary of "ao basis" -> "ao basis" (cartesian)
 ------------------------------------------------------------------------------
       Tag                 Description            Shells   Functions and Types
 ---------------- ------------------------------  ------  ---------------------
 As                       aug-cc-pVTZ               19       69   7s6p4d2f




                         Geometry "geometry" -> "geometry"
                         ---------------------------------

 Output coordinates in angstroms (scale by  1.889725989 to convert to a.u.)

  No.       Tag          Charge          X              Y              Z
 ---- ---------------- ---------- -------------- -------------- --------------
    1 As                  33.0000     0.00000000     0.00000000     0.00000000

      Atomic Mass 
      ----------- 

      As                74.921600


 Effective nuclear repulsion energy (a.u.)       0.0000000000

            Nuclear Dipole moment (a.u.) 
            ----------------------------
        X                 Y               Z
 ---------------- ---------------- ----------------
     0.0000000000     0.0000000000     0.0000000000


                      Basis "ao basis" -> "ao basis" (cartesian)
                      -----
  As (Arsenic)
  ------------
            Exponent  Coefficients 
       -------------- ---------------------------------------------------------
  1 S  8.48233960E+06  0.761739
  1 S  1.27015090E+06  1.423756
  1 S  2.89056960E+05  2.464645
  1 S  8.18798490E+04  4.036948
  1 S  2.67165640E+04  6.317957
  1 S  9.64758420E+03  9.474105
  1 S  3.76411950E+03 13.473831
  1 S  1.56156560E+03 17.691835
  1 S  6.80814670E+02 20.152840
  1 S  3.09241190E+02 17.679581
  1 S  1.45257360E+02  9.408718
  1 S  6.97390480E+01  2.031804
  1 S  3.17703250E+01  0.076371
  1 S  1.53917570E+01  0.001824
  1 S  7.34152600E+00 -0.000484
  1 S  3.32371600E+00  0.000043
  1 S  1.48586700E+00 -0.000035
  1 S  2.11500000E-01 -0.000002

  2 S  8.48233960E+06 -0.235225
  2 S  1.27015090E+06 -0.444891
  2 S  2.89056960E+05 -0.769366
  2 S  8.18798490E+04 -1.260115
  2 S  2.67165640E+04 -1.982023
  2 S  9.64758420E+03 -2.989499
  2 S  3.76411950E+03 -4.348472
  2 S  1.56156560E+03 -5.951055
  2 S  6.80814670E+02 -7.498684
  2 S  3.09241190E+02 -7.958991
  2 S  1.45257360E+02 -6.088918
  2 S  6.97390480E+01 -0.958575
  2 S  3.17703250E+01  3.993557
  2 S  1.53917570E+01  3.189136
  2 S  7.34152600E+00  0.539335
  2 S  3.32371600E+00  0.010642
  2 S  1.48586700E+00  0.001688
  2 S  2.11500000E-01  0.000051

  3 S  8.48233960E+06  0.091702
  3 S  1.27015090E+06  0.176594
  3 S  2.89056960E+05  0.306388
  3 S  8.18798490E+04  0.502333
  3 S  2.67165640E+04  0.790660
  3 S  9.64758420E+03  1.192832
  3 S  3.76411950E+03  1.741034
  3 S  1.56156560E+03  2.393462
  3 S  6.80814670E+02  3.057650
  3 S  3.09241190E+02  3.326052
  3 S  1.45257360E+02  2.683962
  3 S  6.97390480E+01  0.453283
  3 S  3.17703250E+01 -2.396366
  3 S  1.53917570E+01 -2.884941
  3 S  7.34152600E+00 -0.180768
  3 S  3.32371600E+00  1.271710
  3 S  1.48586700E+00  0.513424
  3 S  2.11500000E-01 -0.002529

  4 S  8.48233960E+06 -0.036091
  4 S  1.27015090E+06 -0.078189
  4 S  2.89056960E+05 -0.133107
  4 S  8.18798490E+04 -0.217846
  4 S  2.67165640E+04 -0.342846
  4 S  9.64758420E+03 -0.517347
  4 S  3.76411950E+03 -0.755156
  4 S  1.56156560E+03 -1.039273
  4 S  6.80814670E+02 -1.329513
  4 S  3.09241190E+02 -1.452479
  4 S  1.45257360E+02 -1.179399
  4 S  6.97390480E+01 -0.203712
  4 S  3.17703250E+01  1.106324
  4 S  1.53917570E+01  1.406285
  4 S  7.34152600E+00  0.072750
  4 S  3.32371600E+00 -0.805910
  4 S  1.48586700E+00 -0.600338
  4 S  2.11500000E-01  0.232576

  5 S  4.21086000E-01  0.372553

  6 S  8.89740000E-02  0.116107

  7 S  3.34070000E-02  0.055691

  8 P  7.42386140E+03 45.173066
  8 P  1.75951660E+03 64.685141
  8 P  5.70229160E+02 85.250558
  8 P  2.16579970E+02 97.657137
  8 P  9.07342520E+01 89.367170
  8 P  4.03087910E+01 56.760030
  8 P  1.85555020E+01 19.444531
  8 P  8.39654300E+00  2.136394
  8 P  3.76736700E+00  0.025185
  8 P  1.62970100E+00  0.004854
  8 P  2.22503000E-01  0.000050

  9 P  7.42386140E+03-18.067069
  9 P  1.75951660E+03-26.048587
  9 P  5.70229160E+02-34.614139
  9 P  2.16579970E+02-40.837819
  9 P  9.07342520E+01-39.011155
  9 P  4.03087910E+01-26.623157
  9 P  1.85555020E+01 -8.254766
  9 P  8.39654300E+00  4.106678
  9 P  3.76736700E+00  4.120676
  9 P  1.62970100E+00  1.038014
  9 P  2.22503000E-01 -0.001206

 10 P  7.42386140E+03  6.637684
 10 P  1.75951660E+03  9.595653
 10 P  5.70229160E+02 12.749586
 10 P  2.16579970E+02 15.108396
 10 P  9.07342520E+01 14.488486
 10 P  4.03087910E+01  9.999096
 10 P  1.85555020E+01  3.023871
 10 P  8.39654300E+00 -1.893745
 10 P  3.76736700E+00 -1.915725
 10 P  1.62970100E+00 -0.555210
 10 P  2.22503000E-01  0.216010

 11 P  5.68263000E-01  0.703278

 12 P  8.04050000E-02  0.061030

 13 P  2.67990000E-02  0.015456

 14 D  3.21019610E+02 69.682947
 14 D  9.62493050E+01 71.173825
 14 D  3.66449630E+01 58.279781
 14 D  1.54939650E+01 36.709224
 14 D  6.89113800E+00 15.988003
 14 D  3.05483100E+00  4.527181
 14 D  1.31424100E+00  0.754058

 15 D  5.13430000E-01  0.512568

 16 D  1.87700000E-01  0.088099

 17 D  7.00000000E-02  0.015679

 18 F  4.15800000E-01  0.204383

 19 F  1.69000000E-01  0.026959



    Basis function labels
    ---------------------
       No.  Atm El Type
       ---  --- -- ----
        1    1 As s          
        2    1 As s          
        3    1 As s          
        4    1 As s          
        5    1 As s          
        6    1 As s          
        7    1 As s          
        8    1 As px         
        9    1 As py         
       10    1 As pz         
       11    1 As px         
       12    1 As py         
       13    1 As pz         
       14    1 As px         
       15    1 As py         
       16    1 As pz         
       17    1 As px         
       18    1 As py         
       19    1 As pz         
       20    1 As px         
       21    1 As py         
       22    1 As pz         
       23    1 As px         
       24    1 As py         
       25    1 As pz         
       26    1 As dxx        
       27    1 As dxy        
       28    1 As dxz        
       29    1 As dyy        
       30    1 As dyz        
       31    1 As dzz        
       32    1 As dxx        
       33    1 As dxy        
       34    1 As dxz        
       35    1 As dyy        
       36    1 As dyz        
       37    1 As dzz        
       38    1 As dxx        
       39    1 As dxy        
       40    1 As dxz        
       41    1 As dyy        
       42    1 As dyz        
       43    1 As dzz        
       44    1 As dxx        
       45    1 As dxy        
       46    1 As dxz        
       47    1 As dyy        
       48    1 As dyz        
       49    1 As dzz        
       50    1 As fxxx       
       51    1 As fxxy       
       52    1 As fxxz       
       53    1 As fxyy       
       54    1 As fxyz       
       55    1 As fxzz       
       56    1 As fyyy       
       57    1 As fyyz       
       58    1 As fyzz       
       59    1 As fzzz       
       60    1 As fxxx       
       61    1 As fxxy       
       62    1 As fxxz       
       63    1 As fxyy       
       64    1 As fxyz       
       65    1 As fxzz       
       66    1 As fyyy       
       67    1 As fyyz       
       68    1 As fyzz       
       69    1 As fzzz       
  int_init: cando_txs set to always be  F

 Schwarz integral screening summary 
 ---------------------------------- 

        No. of atom pairs =       1
       No. of shell pairs =     190

 Atomic screening 

   value      no.     value      no.     value      no.     value      no.   
  -------- ------    -------- ------    -------- ------    -------- ------   
  0.00D+00      0    1.00D-13      0    1.00D-12      0    1.00D-11      0
  1.00D-10      0    1.00D-09      0    1.00D-08      0    1.00D-07      0
  1.00D-06      0    1.00D-05      0    1.00D-04      0    1.00D-03      0
  1.00D-02      0    1.00D-01      0    1.00D+00      0    1.00D+01      1


 Shell screening 

   value      no.     value      no.     value      no.     value      no.   
  -------- ------    -------- ------    -------- ------    -------- ------   
  0.00D+00      0    1.00D-13      0    1.00D-12      0    1.00D-11      0
  1.00D-10      0    1.00D-09      0    1.00D-08      0    1.00D-07      0
  1.00D-06      1    1.00D-05      2    1.00D-04      3    1.00D-03      7
  1.00D-02     19    1.00D-01     71    1.00D+00     85    1.00D+01      2


  Caching 1-el integrals 
  atom                     1  - neighbor  & S                     1   10.000000000000000       exp AB    2.6799000000000021E-002   2.6799000000000021E-002
 zmins =     0.026799000    0.026799000 lprod =   2 range =        21.35 acc   0.10D-07
 sh     0.000000000
  Center:                     1  Radial Pts. & Wghts. 
    1        0.000001260           5.9943608E-18
    2        0.000010076           1.5345615E-15
    3        0.000034007           3.9329491E-14
    4        0.000080610           3.9285829E-13
    5        0.000157443           2.3416863E-12
    6        0.000272065           1.0069262E-11
    7        0.000432035           3.4561961E-11
    8        0.000644917           1.0059332E-10
    9        0.000918275           2.5812762E-10
   10        0.001259677           5.9972316E-10
   11        0.001676697           1.2857639E-09
   12        0.002176912           2.5795999E-09
   13        0.002767907           4.8949342E-09
   14        0.003457276           8.8580522E-09
   15        0.004252620           1.5387761E-08
   16        0.005161552           2.5796181E-08
   17        0.006191697           4.1913810E-08
   18        0.007350693           6.6242590E-08
   19        0.008646196           1.0214100E-07
   20        0.010085878           1.5404555E-07
   21        0.011677432           2.2773327E-07
   22        0.013428571           3.3063048E-07
   23        0.015347036           4.7217292E-07
   24        0.017440589           6.6422342E-07
   25        0.019717028           9.2155313E-07
   26        0.022184177           1.2623932E-06
   27        0.024849898           1.7090639E-06
   28        0.027722090           2.2886894E-06
   29        0.030808692           3.0340058E-06
   30        0.034117688           3.9842720E-06
   31        0.037657107           5.1862928E-06
   32        0.041435033           6.6955645E-06
   33        0.045459599           8.5775542E-06
   34        0.049739001           1.0909125E-05
   35        0.054281493           1.3780118E-05
   36        0.059095398           1.7295111E-05
   37        0.064189110           2.1575359E-05
   38        0.069571094           2.6760943E-05
   39        0.075249900           3.3013138E-05
   40        0.081234158           4.0517023E-05
   41        0.087532590           4.9484348E-05
   42        0.094154013           6.0156686E-05
   43        0.101107342           7.2808897E-05
   44        0.108401599           8.7752917E-05
   45        0.116045920           1.0534191E-04
   46        0.124049555           1.2597483E-04
   47        0.132421882           1.5010138E-04
   48        0.141172408           1.7822744E-04
   49        0.150310779           2.1092103E-04
   50        0.159846785           2.4881880E-04
   51        0.169790371           2.9263307E-04
   52        0.180151641           3.4315960E-04
   53        0.190940870           4.0128598E-04
   54        0.202168508           4.6800085E-04
   55        0.213845194           5.4440391E-04
   56        0.225981761           6.3171684E-04
   57        0.238589249           7.3129523E-04
   58        0.251678915           8.4464156E-04
   59        0.265262241           9.7341935E-04
   60        0.279350948           1.1194686E-03
   61        0.293957006           1.2848228E-03
   62        0.309092648           1.4717268E-03
   63        0.324770382           1.6826576E-03
   64        0.341003003           1.9203454E-03
   65        0.357803611           2.1877982E-03
   66        0.375185622           2.4883273E-03
   67        0.393162785           2.8255760E-03
   68        0.411749202           3.2035506E-03
   69        0.430959338           3.6266547E-03
   70        0.450808047           4.0997255E-03
   71        0.471310584           4.6280756E-03
   72        0.492482632           5.2175364E-03
   73        0.514340320           5.8745074E-03
   74        0.536900243           6.6060096E-03
   75        0.560179492           7.4197435E-03
   76        0.584195674           8.3241537E-03
   77        0.608966941           9.3284994E-03
   78        0.634512018           1.0442931E-02
   79        0.660850231           1.1678577E-02
   80        0.688001542           1.3047634E-02
   81        0.715986579           1.4563473E-02
   82        0.744826675           1.6240753E-02
   83        0.774543904           1.8095542E-02
   84        0.805161119           2.0145459E-02
   85        0.836702002           2.2409825E-02
   86        0.869191100           2.4909831E-02
   87        0.902653882           2.7668724E-02
   88        0.937116787           3.0712016E-02
   89        0.972607281           3.4067707E-02
   90        1.009153913           3.7766547E-02
   91        1.046786385           4.1842310E-02
   92        1.085535613           4.6332114E-02
   93        1.125433804           5.1276765E-02
   94        1.166514535           5.6721150E-02
   95        1.208812835           6.2714671E-02
   96        1.252365275           6.9311729E-02
   97        1.297210068           7.6572270E-02
   98        1.343387174           8.4562391E-02
   99        1.390938412           9.3355028E-02
  100        1.439907583           1.0303072E-01
  101        1.490340605           1.1367847E-01
  102        1.542285653           1.2539673E-01
  103        1.595793320           1.3829451E-01
  104        1.650916785           1.5249257E-01
  105        1.707711996           1.6812492E-01
  106        1.766237873           1.8534032E-01
  107        1.826556530           2.0430419E-01
  108        1.888733510           2.2520063E-01
  109        1.952838055           2.4823480E-01
  110        2.018943388           2.7363564E-01
  111        2.087127038           3.0165898E-01
  112        2.157471181           3.3259109E-01
  113        2.230063033           3.6675281E-01
  114        2.304995270           4.0450433E-01
  115        2.382366504           4.4625064E-01
  116        2.462281803           4.9244794E-01
  117        2.544853275           5.4361113E-01
  118        2.630200720           6.0032241E-01
  119        2.718452349           6.6324154E-01
  120        2.809745603           7.3311776E-01
  121        2.904228062           8.1080389E-01
  122        3.002058476           8.9727304E-01
  123        3.103407929           9.9363844E-01
  124        3.208461152           1.1011771E+00
  125        3.317418026           1.2213579E+00
  126        3.430495287           1.3558762E+00
  127        3.547928485           1.5066941E+00
  128        3.669974232           1.6760912E+00
  129        3.796912798           1.8667251E+00
  130        3.929051114           2.0817060E+00
  131        4.066726280           2.3246892E+00
  132        4.210309651           2.5999896E+00
  133        4.360211653           2.9127245E+00
  134        4.516887468           3.2689939E+00
  135        4.680843800           3.6761085E+00
  136        4.852646958           4.1428818E+00
  137        5.032932600           4.6800058E+00
  138        5.222417543           5.3005404E+00
  139        5.421914208           6.0205565E+00
  140        5.632348420           6.8599902E+00
  141        5.854781561           7.8437917E+00
  142        6.090438405           9.0034891E+00
  143        6.340742484           1.0379350E+01
  144        6.607361582           1.2023413E+01
  145        6.892267027           1.4003820E+01
  146        7.197812150           1.6411112E+01
  147        7.526837852           1.9367612E+01
  148        7.882817364           2.3041707E+01
  149        8.270059060           2.7670246E+01
  150        8.693997741           3.3594779E+01
  151        9.161625131           4.1322426E+01
  152        9.682147975           5.1632661E+01
  153       10.268035371           6.5774732E+01
  154       10.936769153           8.5856595E+01
  155       11.713952706           1.1567446E+02
  156       12.639279911           1.6267248E+02
  157       13.779249576           2.4325292E+02
  158       15.258524230           4.0028431E+02
  159       17.356976012           7.8190056E+02
  160       20.967654748           2.2965345E+03
     irreducible set of Lebedev Angular points ;
  0.009523809523810  1.000000000000000  0.000000000000000  0.000000000000000
  0.032142857142857  0.577350269189626  0.577350269189626  0.577350269189626
  0.028571428571429  0.459700843380983  0.000000000000000  0.888073833977115
   total no. of   reducible points:  38; test:  1.00000000
  0.012698412698413  1.000000000000000  0.000000000000000  0.000000000000000
  0.022574955908289  0.707106781186547  0.707106781186547  0.000000000000000
  0.021093750000000  0.577350269189626  0.577350269189626  0.577350269189626
  0.020173335537919  0.301511344577764  0.301511344577764  0.904534033733291
   total no. of   reducible points:  50; test:  1.00000000
  0.000513067179734  1.000000000000000  0.000000000000000  0.000000000000000
  0.016604069565742  0.707106781186547  0.707106781186547  0.000000000000000
 -0.029586038961039  0.577350269189626  0.577350269189626  0.577350269189626
  0.026576207082159  0.480384461415261  0.480384461415261  0.733799385705343
  0.016522170993716  0.320772648980776  0.000000000000000  0.947156221362588
   total no. of   reducible points:  74; test:  1.00000000
  0.011544011544012  1.000000000000000  0.000000000000000  0.000000000000000
  0.011943909085856  0.577350269189626  0.577350269189626  0.577350269189626
  0.011110555710603  0.369602846454150  0.369602846454150  0.852518311701268
  0.011876501294537  0.694354006602666  0.694354006602666  0.189063552885395
  0.011812303746904  0.374243039090341  0.000000000000000  0.927330657151172
   total no. of   reducible points:  86; test:  1.00000000
  0.003828270494937  1.000000000000000  0.000000000000000  0.000000000000000
  0.009793737512488  0.577350269189626  0.577350269189626  0.577350269189626
  0.008211737283191  0.185115635344736  0.185115635344736  0.965124035086594
  0.009942814891178  0.690421048382292  0.690421048382292  0.215957291845848
  0.009595471336071  0.395689473055942  0.395689473055942  0.828769981252592
  0.009694996361663  0.478369028812150  0.000000000000000  0.878158910604066
   total no. of   reducible points: 110; test:  1.00000000
  0.000599631368862  1.000000000000000  0.000000000000000  0.000000000000000
  0.007372999718621  0.707106781186547  0.707106781186547  0.000000000000000
  0.007210515360144  0.577350269189626  0.577350269189626  0.577350269189626
  0.007116355493118  0.676441040011426  0.676441040011426  0.291298882209527
  0.006753829486314  0.417496122796545  0.417496122796545  0.807089818359583
  0.007574394159054  0.157467667203908  0.157467667203908  0.974888643677173
  0.006991087353303  0.140355381171318  0.449332832326956  0.882270011260323
   total no. of   reducible points: 146; test:  1.00000000
  0.005544842902037  1.000000000000000  0.000000000000000  0.000000000000000
  0.006071332770671  0.707106781186547  0.707106781186547  0.000000000000000
  0.006383674773515  0.577350269189626  0.577350269189626  0.577350269189626
  0.005183387587748  0.255125262111413  0.255125262111413  0.932642590312691
  0.006317929009814  0.674360146036277  0.674360146036277  0.300793595137701
  0.006201670006589  0.431891069671941  0.431891069671941  0.791795559393492
  0.005477143385137  0.261393136033599  0.000000000000000  0.965232421976448
  0.005968383987681  0.499045316179604  0.144663074432512  0.854415804684659
   total no. of   reducible points: 170; test:  1.00000000
  0.001782340447245  1.000000000000000  0.000000000000000  0.000000000000000
  0.005716905949977  0.707106781186547  0.707106781186547  0.000000000000000
  0.005573383178849  0.577350269189626  0.577350269189626  0.577350269189626
  0.005608704082588  0.671297344269523  0.671297344269523  0.314196994182586
  0.005158237711805  0.289246562757544  0.289246562757544  0.912509096867474
  0.005518771467274  0.444693317871744  0.444693317871744  0.777493219314767
  0.004106777028169  0.129933544765007  0.129933544765007  0.982972302707253
  0.005051846064615  0.345770219761128  0.000000000000000  0.938319218137592
  0.005530248916233  0.159041710538353  0.836036015482459  0.525118572443642
   total no. of   reducible points: 194; test:  1.00000000
 -0.055226399197273  1.000000000000000  0.000000000000000  0.000000000000000
  0.004450274607445  0.577350269189626  0.577350269189626  0.577350269189626
  0.004496841067921  0.449204468739761  0.449204468739761  0.772289253148364
  0.005049153450479  0.252041949021020  0.252041949021020  0.934317778845812
  0.003976408018052  0.698190665844724  0.698190665844724  0.158302205463478
  0.004401400650381  0.658740524346096  0.658740524346096  0.363485684956727
  0.017245443505444  0.040385440500977  0.040385440500977  0.998367683967727
  0.004231083095357  0.582384230971558  0.000000000000000  0.812913653173365
  0.005198069864064  0.354587739051869  0.000000000000000  0.935022745880593
  0.004695720972569  0.227218180899819  0.486466153588665  0.843636521068894
   total no. of   reducible points: 230; test:  1.00000000
 -0.001313769127327  1.000000000000000  0.000000000000000  0.000000000000000
 -0.002522728704859  0.707106781186547  0.707106781186547  0.000000000000000
  0.004186853881701  0.577350269189626  0.577350269189626  0.577350269189626
  0.005315167977811  0.703937339158548  0.703937339158548  0.094575076403713
  0.004047142377086  0.101252624857241  0.101252624857241  0.989694807462905
  0.004112482394407  0.464744872642054  0.464744872642054  0.753673939250816
  0.003595584899759  0.327742065497163  0.327742065497163  0.886098344997499
  0.004256131351428  0.662033866369997  0.662033866369997  0.351315128564633
  0.004229582700647  0.850650808352040  0.000000000000000  0.525731112119134
  0.004080914225781  0.323348454269290  0.115311201100970  0.939227929749916
  0.004071467593831  0.231479015871260  0.524493924092236  0.819343388819120
   total no. of   reducible points: 266; test:  1.00000000
  0.000854591172513  1.000000000000000  0.000000000000000  0.000000000000000
  0.003599119285026  0.577350269189626  0.577350269189626  0.577350269189626
  0.003449788424306  0.351564034557011  0.351564034557011  0.867643624544083
  0.003604822601420  0.656632941021961  0.656632941021961  0.371034178384821
  0.003576729661743  0.472905413258100  0.472905413258100  0.743452042987556
  0.002352101413689  0.096183085226148  0.096183085226148  0.990705621379408
  0.003108953122414  0.221964523629418  0.221964523629418  0.949454317226443
  0.003650045807677  0.701176641608955  0.701176641608955  0.129238672710514
  0.002982344963172  0.264415288706066  0.000000000000000  0.964408914879206
  0.003600820932216  0.571895589187896  0.000000000000000  0.820326419827759
  0.003571540554273  0.251003475177047  0.800072749407395  0.544867737258077
  0.003392312205006  0.123354853258333  0.412772408316853  0.902442529533000
   total no. of   reducible points: 302; test:  1.00000000
  0.003006796749454  1.000000000000000  0.000000000000000  0.000000000000000
  0.003050627745651  0.577350269189626  0.577350269189626  0.577350269189626
  0.001621104600289  0.706896546391232  0.706896546391232  0.024383301669356
  0.003005701484902  0.479468262571203  0.479468262571203  0.734996850587746
  0.002990992529654  0.192753315487802  0.192753315487802  0.962129055136014
  0.002982170644108  0.693035796132712  0.693035796132712  0.198501311223365
  0.002721564237311  0.360830211552009  0.360830211552009  0.860001812127547
  0.003033513795811  0.649848616149617  0.649848616149617  0.394199888605839
  0.003007949555219  0.193294501323034  0.000000000000000  0.981140782843257
  0.002881964603055  0.380049491989930  0.000000000000000  0.924966152698679
  0.002958357626536  0.289955882549957  0.793453785658232  0.535123047718276
  0.003036020026407  0.096841214551040  0.828080150668686  0.552182074349399
  0.002832187403926  0.183343464704166  0.907465826530513  0.378009189874487
   total no. of   reducible points: 350; test:  1.00000000
  0.000526589796822  1.000000000000000  0.000000000000000  0.000000000000000
  0.002548219972003  0.707106781186547  0.707106781186547  0.000000000000000
  0.002512317418927  0.577350269189626  0.577350269189626  0.577350269189626
  0.002530403801186  0.690934630750911  0.690934630750911  0.212646824707552
  0.002014279020919  0.177483605460916  0.177483605460916  0.967987158791473
  0.002501725168403  0.491434263778475  0.491434263778475  0.719016501040843
  0.002513267174598  0.645666470742426  0.645666470742426  0.407712664897770
  0.002302694782227  0.286128901030764  0.286128901030764  0.914472801120872
  0.001462495621595  0.075680843671780  0.075680843671780  0.994255912631278
  0.002445373437313  0.392725976336800  0.392725976336800  0.831584400419232
  0.002417442375639  0.881813287779429  0.000000000000000  0.471598691151316
  0.001910951282180  0.977642811118265  0.000000000000000  0.210272522857307
  0.002416930044325  0.205482369640304  0.868946032287241  0.450233038258263
  0.002512236854563  0.590515704892527  0.799927854385729  0.106801826075805
  0.002496644054553  0.555015236107681  0.771746262691590  0.310428403516654
  0.002236607760438  0.937180985855372  0.334436314534346  0.099217696364292
   total no. of   reducible points: 434; test:  1.00000000
  0.000309512129531  1.000000000000000  0.000000000000000  0.000000000000000
  0.001852379698597  0.577350269189626  0.577350269189626  0.577350269189626
  0.001871790639278  0.704095493822747  0.704095493822747  0.092190407076898
  0.001858812585438  0.680774406645524  0.680774406645524  0.270356088359165
  0.001852028828296  0.637254693925875  0.637254693925875  0.433373868777154
  0.001846715956151  0.504441970780036  0.504441970780036  0.700768575373573
  0.001818471778163  0.421576178401097  0.421576178401097  0.802836877335274
  0.001749564657281  0.331792073647212  0.331792073647212  0.883078727934133
  0.001617210647254  0.238473670142189  0.238473670142189  0.941414158220403
  0.001384737234852  0.145903644915776  0.145903644915776  0.978480583762694
  0.000976433116505  0.060950341155072  0.060950341155072  0.996278129754016
  0.001857161196774  0.611684344200988  0.000000000000000  0.791101929626902
  0.001705153996396  0.396475534819986  0.000000000000000  0.918045287711454
  0.001300321685886  0.172478200990772  0.000000000000000  0.985013335028002
  0.001842866472905  0.561026380862206  0.351828092773352  0.749310611904116
  0.001802658934377  0.474239284255198  0.263471665593795  0.840047488359050
  0.001849830560444  0.598412649788538  0.181664084036021  0.780320742479920
  0.001713904507107  0.379103540769556  0.172079522565688  0.909213475092374
  0.001555213603397  0.277867319058624  0.082130215819325  0.957102074310073
  0.001802239128009  0.503356427107512  0.089992058420749  0.859379855890721
   total no. of   reducible points: 590; test:  1.00000000
  0.000219294208818  1.000000000000000  0.000000000000000  0.000000000000000
  0.001436433617319  0.707106781186547  0.707106781186547  0.000000000000000
  0.001421940344336  0.577350269189626  0.577350269189626  0.577350269189626
  0.000679812351105  0.050872044105024  0.050872044105024  0.997408677652823
  0.000991318423529  0.122819879017883  0.122819879017883  0.984799753572301
  0.001180207833239  0.202689081440879  0.202689081440879  0.958036675983391
  0.001296599602081  0.284774515646429  0.284774515646429  0.915317950483155
  0.001365871427428  0.365671907897803  0.365671907897803  0.855901928697887
  0.001402988604775  0.442826488671347  0.442826488671347  0.779621319527635
  0.001418645563596  0.514061962724974  0.514061962724974  0.686644447264154
  0.001421376741852  0.630640121916680  0.630640121916680  0.452311920313658
  0.001423996475491  0.671688333202261  0.671688333202261  0.312521305001653
  0.001431554042179  0.697979268533688  0.697979268533688  0.160155803498829
  0.000925440149987  0.144686567419531  0.000000000000000  0.989477537495599
  0.001250239995054  0.339026347541122  0.000000000000000  0.940776878793759
  0.001394365843329  0.533580465126351  0.000000000000000  0.845749305193653
  0.001127089094672  0.069440243933494  0.235518789424233  0.969385863498432
  0.001345753760911  0.226900410952946  0.410218247404573  0.883310360522113
  0.001424957283317  0.080255746077753  0.621430241748161  0.779348105702661
  0.001261523341238  0.146799952789657  0.324528434571739  0.934414827052402
  0.001392547106053  0.157150776982473  0.522448218969663  0.838064133458312
  0.001418761677878  0.236570299315725  0.601754663408956  0.762840624604670
  0.001338366684480  0.077148158667657  0.434657551614116  0.897285336132833
  0.001393700862676  0.306293666621073  0.490882658903762  0.815609223203975
  0.001415914757467  0.382247737952479  0.564876814909950  0.731300793659766
   total no. of   reducible points: 770; test:  1.00000000
  0.000143829419053  1.000000000000000  0.000000000000000  0.000000000000000
  0.001125772288287  0.577350269189626  0.577350269189626  0.577350269189626
  0.000494802934195  0.042929635453413  0.042929635453413  0.998155345023847
  0.000735799010913  0.105142685408640  0.105142685408640  0.988883224354686
  0.000888913277130  0.175002486762309  0.175002486762309  0.968890220434707
  0.000988834783892  0.247765337965026  0.247765337965026  0.936602730407163
  0.001053299681709  0.320656712395596  0.320656712395596  0.891267942647606
  0.001092778807015  0.391652074984998  0.391652074984998  0.832596723702352
  0.001114389394063  0.459082587418762  0.459082587418762  0.760582905315251
  0.001123724788052  0.521456388841586  0.521456388841586  0.675400969108414
  0.001125239325244  0.625317024465420  0.625317024465420  0.466858905695743
  0.001126153271816  0.663792674452317  0.663792674452317  0.344613654237438
  0.001130286931124  0.691041039849830  0.691041039849830  0.211954151850184
  0.001134986534364  0.705290700745776  0.705290700745776  0.071624401449956
  0.000682336792711  0.123668676265799  0.000000000000000  0.992323565431490
  0.000945415816045  0.294077711446839  0.000000000000000  0.955781512496548
  0.001074429975386  0.469775384920765  0.000000000000000  0.882785980701182
  0.001129300086569  0.633456324113957  0.000000000000000  0.773778447257375
  0.000843688450090  0.059740486141813  0.202912875277752  0.977372722845310
  0.001075255720449  0.137576040847364  0.460262194248405  0.877058461865803
  0.001108577236864  0.339101652633629  0.503067399966204  0.794942299964208
  0.000956647532378  0.127167519143982  0.281760642244213  0.951020169374390
  0.001080663250717  0.269312074041351  0.433156129172016  0.860143461601762
  0.001126797131196  0.141978645260192  0.625616735858081  0.767102186220558
  0.001022568715358  0.067092846007383  0.379839521685916  0.922616110730809
  0.001108960267713  0.070577381832562  0.551750542142352  0.831017552413474
  0.001122790653436  0.278388847788215  0.602961915615919  0.747620610834086
  0.001032401847117  0.197957893891741  0.358960632958910  0.912118378409121
  0.001107249382284  0.208730706110327  0.534866643813548  0.818748536281022
  0.001121780048520  0.405512213787284  0.567499754607437  0.716591845467024
   total no. of   reducible points: 974; test:  1.00000000
  0.000110518923327  1.000000000000000  0.000000000000000  0.000000000000000
  0.000920523273809  0.707106781186547  0.707106781186547  0.000000000000000
  0.000913315978644  0.577350269189626  0.577350269189626  0.577350269189626
  0.000369042189802  0.037126364496571  0.037126364496571  0.998620681799919
  0.000560399092868  0.091400604122622  0.091400604122622  0.991610739722014
  0.000686529762928  0.153107785246991  0.153107785246991  0.976276606394685
  0.000772033855115  0.218092889166061  0.218092889166061  0.951247067480579
  0.000830154595889  0.283987453220018  0.283987453220018  0.915806886208668
  0.000868669255018  0.349117760096376  0.349117760096376  0.869616915181954
  0.000892707628585  0.412143146144431  0.412143146144431  0.812573722299916
  0.000906082023857  0.471899362714913  0.471899362714913  0.744729469632107
  0.000911977725494  0.527314545284234  0.527314545284234  0.666242253736104
  0.000912872013860  0.620947533244402  0.620947533244402  0.478380938076952
  0.000913071493569  0.656972271185729  0.656972271185729  0.369830866459426
  0.000915287378455  0.684178830907014  0.684178830907014  0.252583955700718
  0.000918743627432  0.701260433012363  0.701260433012363  0.128326186659723
  0.000517697731297  0.107238221547817  0.000000000000000  0.994233354821322
  0.000733114368210  0.258206895949697  0.000000000000000  0.966089643296119
  0.000846323283638  0.417275295530672  0.000000000000000  0.908780131681911
  0.000903112269425  0.570036691179250  0.000000000000000  0.821619237061433
  0.000648577845316  0.982798601826395  0.177177402261533  0.052106394770113
  0.000743503091098  0.962424923032623  0.247571646342629  0.111564095715648
  0.000799852789184  0.940200799412881  0.335461628906649  0.059058888532354
  0.000810173149747  0.932082204014320  0.317361524661198  0.174655167757863
  0.000848338957459  0.904367419939330  0.409026842708536  0.121723505109599
  0.000855629925731  0.891240756007475  0.385429115066922  0.239027847938172
  0.000880320867974  0.867643562846271  0.493222118485128  0.062662506241542
  0.000881104818243  0.858197998604162  0.478532067592243  0.185750519454734
  0.000885028234127  0.839675362404986  0.450742259315706  0.302946697352898
  0.000902134229904  0.816528856402219  0.563212302076210  0.126777480068428
  0.000901009167711  0.801546937078353  0.543430356969390  0.249411216236224
  0.000902269293843  0.777356306907035  0.512351848641987  0.364983226059765
  0.000915801617469  0.766162121390039  0.639427963474910  0.064245492242208
  0.000913157800319  0.755358414353351  0.626980550902439  0.190601822277923
  0.000910781357948  0.734430575755950  0.603116169309631  0.311227594714961
  0.000910576025897  0.704383718402177  0.569370249846844  0.423864478152234
   total no. of   reducible points:1202; test:  1.00000000
  0.000077771607433  1.000000000000000  0.000000000000000  0.000000000000000
  0.000755764641300  0.577350269189626  0.577350269189626  0.577350269189626
  0.000284163380609  0.032292906634139  0.032292906634139  0.998956623864238
  0.000437441912705  0.080367332714622  0.080367332714622  0.993520097262594
  0.000541717474087  0.135428996053165  0.135428996053165  0.981487633165117
  0.000614800089136  0.193896386111443  0.193896386111443  0.961669580940275
  0.000666439448580  0.253734371501127  0.253734371501127  0.933401166400522
  0.000702503935692  0.313525143475257  0.313525143475257  0.896328047546008
  0.000726851178925  0.372155833937534  0.372155833937534  0.850294108254619
  0.000742263753421  0.428680957519570  0.428680957519570  0.795276853253136
  0.000750954503584  0.482251012828299  0.482251012828299  0.731346649169981
  0.000754853505772  0.532067933356626  0.532067933356626  0.658640591360127
  0.000755408896977  0.617299819539427  0.617299819539427  0.487731345715221
  0.000755314717444  0.651067984912748  0.651067984912748  0.390155043595885
  0.000756476765329  0.677731525168736  0.677731525168736  0.285236672931301
  0.000758799180852  0.696310941064874  0.696310941064874  0.174075117999957
  0.000760826183203  0.705893500983175  0.705893500983175  0.058555363028785
  0.000402168044787  0.995554619409186  0.000000000000000  0.094185985013862
  0.000580487179395  0.973411590179421  0.000000000000000  0.229063039585986
  0.000679215195595  0.927569373238863  0.000000000000000  0.373650983980055
  0.000733674121129  0.856802242279510  0.000000000000000  0.515645147000147
  0.000758186630099  0.762349555371937  0.000000000000000  0.647165477620840
  0.000753825785980  0.570752290889222  0.438702803988950  0.694104943230444
  0.000748351724705  0.519646338840308  0.385890841476262  0.762270254565011
  0.000737176366111  0.464633753121535  0.330193737234385  0.821637128756598
  0.000718344889576  0.406390169755769  0.272542357356378  0.872105322408083
  0.000689581552982  0.345632946664309  0.213951023749525  0.913653558859526
  0.000648010580179  0.283139512105033  0.155592230978665  0.946373644151191
  0.000589755889659  0.219768202292533  0.098928789796861  0.970523071240677
  0.000509570884925  0.156469609865035  0.045986429106755  0.986611630545015
  0.000753690642891  0.602735667372129  0.337662514017343  0.722975616397235
  0.000747250596558  0.549603232025510  0.282230130972799  0.786309379645309
  0.000734301713228  0.492170775523457  0.224863234259254  0.840954489612314
  0.000713087158218  0.430942299859848  0.166622472345648  0.886862833757808
  0.000681702203211  0.366410818231367  0.108696490182217  0.924082347686118
  0.000638094114560  0.299018905775844  0.052519897841201  0.952800794667682
  0.000755038137792  0.626872401314500  0.229752365755002  0.744476220506856
  0.000747864664014  0.570732414483461  0.172308060709380  0.802853936449496
  0.000733591872060  0.509636090196037  0.114023846539051  0.852801042441985
  0.000711012052766  0.443872993831246  0.056115220958825  0.894330949550573
  0.000757136397869  0.641997847108239  0.116417442314087  0.757816431224233
  0.000748990832908  0.581721806180261  0.057975895314452  0.811319009870262
   total no. of   reducible points:1454; test:  1.00000000
  qrot: 

              1        2        3      
    1    1.0000   0.0000   0.0000
    2    0.0000   1.0000   0.0000
    3    0.0000   0.0000   1.0000
  me                     0   done genpts
  me                     1   done genpts
  me                     2   done genpts
  me                     3   done genpts
  me                     4   done genpts
  me                     5   done genpts
  me                     6   done genpts
  me                     7   done genpts
  me                     0   done uprt
  me                     1   done uprt
  me                     2   done uprt
  me                     3   done uprt
  me                     4   done uprt
  me                     5   done uprt
  me                     6   done uprt
  me                     7   done uprt
  me                     0  done mem
  me                     1  done mem
  me                     2  done mem
  me                     3  done mem
  me                     4  done mem
  me                     6  done mem
  me                     7  done mem
  me                     5  done mem
  dftinpanae: itol2e                     8  iaoacc                    14  tol_rho    1.0000000000000000E-010

            General Information
            -------------------
          SCF calculation type: DFT
          Wavefunction type:  spin polarized.
          No. of atoms     :     1
          No. of electrons :    33
           Alpha electrons :    18
            Beta electrons :    15
          Charge           :     0
          Spin multiplicity:     4
          Use of symmetry is: off; symmetry adaption is: off
          Maximum number of iterations:  50
          AO basis - number of functions:    69
                     number of shells:    19
          Convergence on energy requested:  1.00D-06
          Convergence on density requested:  1.00D-05
          Convergence on gradient requested:  5.00D-04

              XC Information
              --------------
                     Hartree-Fock (Exact) Exchange  1.000          
                     LC-wPBE(h)Exchange Functional  1.000          
            Perdew 1991 LDA Correlation Functional  1.000 local    
           PerdewBurkeErnz. Correlation Functional  1.000 non-local

           Range-Separation Parameters        
           ---------------------------
           Alpha           :  0.00
           Beta            :  1.00
           Gamma           :  0.40
           Short-Range HF  :     F

             Grid Information
             ----------------
          Grid used for XC integration:  xfine     
          Radial quadrature: Mura-Knowles        
          Angular quadrature: Lebedev. 
          Tag              B.-S. Rad. Rad. Pts. Rad. Cut. Ang. Pts.
          ---              ---------- --------- --------- ---------
          As                  1.15      160          11.0      1454
          Grid pruning is: on 
          Number of quadrature shells:   160
          Spatial weights used:  Erf1

          Convergence Information
          -----------------------
          Convergence aids based upon iterative change in 
          total energy or number of iterations. 
          Levelshifting, if invoked, occurs when the 
          HOMO/LUMO gap drops below (HL_TOL):  1.00D-02
          DIIS, if invoked, will attempt to extrapolate 
          using up to (NFOCK): 10 stored Fock matrices.

                    Damping( 0%)  Levelshifting(0.5)       DIIS
                  --------------- ------------------- ---------------
          dE  on:    start            ASAP                start   
          dE off:    2 iters         50 iters            50 iters 


      Screening Tolerance Information
      -------------------------------
          Density screening/tol_rho:  1.00D-10
          AO Gaussian exp screening on grid/accAOfunc:  14
          CD Gaussian exp screening on grid/accCDfunc:  20
          XC Gaussian exp screening on grid/accXCfunc:  20
          Schwarz screening/accCoul:  1.00D-08



                         Geometry "geometry" -> "geometry"
                         ---------------------------------

 Output coordinates in angstroms (scale by  1.889725989 to convert to a.u.)

  No.       Tag          Charge          X              Y              Z
 ---- ---------------- ---------- -------------- -------------- --------------
    1 As                  33.0000     0.00000000     0.00000000     0.00000000

      Atomic Mass 
      ----------- 

      As                74.921600


 Effective nuclear repulsion energy (a.u.)       0.0000000000

            Nuclear Dipole moment (a.u.) 
            ----------------------------
        X                 Y               Z
 ---------------- ---------------- ----------------
     0.0000000000     0.0000000000     0.0000000000

  
  CAM type calculations without CDFIT are
  only available with the direct option.
  Forcing Direct SCF
  


     <<<<<<    Before call to DFT_SCF.    >>>>>>
     <<<<<< date:  Apr 24  time: 11:06:11 >>>>>>


 Setting tolerance for linear dependence to 1.00D-05






 Setting tolerance for linear dependence to 1.00D-05
 Setting tolerance for linear dependence to 1.00D-05
 Setting tolerance for linear dependence to 1.00D-05
 Setting tolerance for linear dependence to 1.00D-05

 Setting tolerance for linear dependence to 1.00D-05
 Setting tolerance for linear dependence to 1.00D-05
 Setting tolerance for linear dependence to 1.00D-05
  lindep tolerance =    1.0000000000000001E-005
  lindep tolerance =    1.0000000000000001E-005
  lindep tolerance =    1.0000000000000001E-005
  lindep tolerance =    1.0000000000000001E-005
  lindep tolerance =    1.0000000000000001E-005
  lindep tolerance =    1.0000000000000001E-005
  lindep tolerance =    1.0000000000000001E-005
  lindep tolerance =    1.0000000000000001E-005


     <<<<<<    Before 3c-2e initialize.   >>>>>>
     <<<<<< date:  Apr 24  time: 11:06:11 >>>>>>


 Setting fock-build task_bf   :      -1
                    maxquartet:   10000
                    maxeri    :  129600
                    maxscr    :       0
                    intacc    : 0.0D+00
                    denscreen : T
                    dentol    : 1.0D-06


      Superposition of Atomic Density Guess
      -------------------------------------

 Sum of atomic energies:       -2234.18057931

      Non-variational initial energy
      ------------------------------

 Total energy =   -2233.914072
 1-e energy   =   -3114.436799
 2-e energy   =     880.522728
 HOMO         =      -0.161751
 LUMO         =      -0.161751


 Setting fock-build task_bf   :      -1
                    maxquartet:   10000
                    maxeri    :  129600
                    maxscr    :       0
                    intacc    : 0.0D+00
                    denscreen : T
                    dentol    : 1.0D-06


 Wrote molecular orbitals to ./as.movecs

  WARNING: movecs_in_org=atomic not equal to movecs_in=./as.movecs
   Time after variat. SCF:      7.6

 Setting fock-build task_bf   :      -1
                    maxquartet:   10000
                    maxeri    :  129600
                    maxscr    :       0
                    intacc    : 0.0D+00
                    denscreen : T
                    dentol    : 1.0D-06

   Time prior to 1st pass:      7.6


     <<<<<<      Before SCF iter loop.    >>>>>>
     <<<<<< date:  Apr 24  time: 11:06:18 >>>>>>

           DAMPING=T LEVELSHIFTING=F DIISING=T
          itol2e= 8 iAOacc=12 iXCacc=20


     <<<<<<            calling 1-e int    >>>>>>
     <<<<<< date:  Apr 24  time: 11:06:18 >>>>>>

    Kinetic Matrix Time:          0.0s

           Kinetic energy =   2233.539715591170

    Potential Matrix Time:          0.0s


     <<<<<<    Before call to GETVXC.     >>>>>>
     <<<<<< date:  Apr 24  time: 11:06:18 >>>>>>



     <<<<<<    Before call to fock_2e.    >>>>>>
     <<<<<< date:  Apr 24  time: 11:06:18 >>>>>>



     <<<<<<     After call to fock_2e.    >>>>>>
     <<<<<< date:  Apr 24  time: 11:06:20 >>>>>>

    Fock_2e Build Time:          2.1s
  *** grid_quadv0:                    calc_type:                    1
  *** grid_quadv0:                    grid_written: F
  *** grid_quadv0:                    grad: T
  *** grid_quadv0:                    kske: F
  *** grid_quadv0:                    kslap: F
  *** grid_quadv0:                    do_scf: T
  *** grid_quadv0:                    fde_option:                    0
  *** grid_quadv0:                    n_per_rec:                 3070
  *** grid_quadv0:                    calc_type:                    1
  *** grid_quadv0:                    grid_written: F
  *** grid_quadv0:                    grad: T
  *** grid_quadv0:                    kske: F
  *** grid_quadv0:                    kslap: F
  *** grid_quadv0:                    do_scf: T
  *** grid_quadv0:                    fde_option:                    0
  *** grid_quadv0:                    n_per_rec:                 3070
  *** grid_quadv0:                    calc_type:                    1
  *** grid_quadv0:                    grid_written: F
  *** grid_quadv0:                    grad: T
  *** grid_quadv0:                    kske: F
  *** grid_quadv0:                    kslap: F
  *** grid_quadv0:                    do_scf: T
  *** grid_quadv0:                    fde_option:                    0
  *** grid_quadv0:                    n_per_rec:                 3070
  *** grid_quadv0:                    calc_type:                    1
  *** grid_quadv0:                    grid_written: F
  *** grid_quadv0:                    grad: T
  *** grid_quadv0:                    kske: F
  *** grid_quadv0:                    kslap: F
  *** grid_quadv0:                    do_scf: T
  *** grid_quadv0:                    fde_option:                    0
  *** grid_quadv0:                    n_per_rec:                 3070
  *** grid_quadv0:                    calc_type:                    1
  *** grid_quadv0:                    grid_written: F
  *** grid_quadv0:                    grad: T
  *** grid_quadv0:                    kske: F
  *** grid_quadv0:                    kslap: F
  *** grid_quadv0:                    do_scf: T
  *** grid_quadv0:                    fde_option:                    0
  *** grid_quadv0:                    n_per_rec:                 3070
  *** grid_quadv0:                    calc_type:                    1
  *** grid_quadv0:                    grid_written: F
  *** grid_quadv0:                    grad: T
  *** grid_quadv0:                    kske: F
  *** grid_quadv0:                    kslap: F
  *** grid_quadv0:                    do_scf: T
  *** grid_quadv0:                    fde_option:                    0
  *** grid_quadv0:                    n_per_rec:                 3070
  *** grid_quadv0:                    calc_type:                    1
  *** grid_quadv0:                    grid_written: F
  *** grid_quadv0:                    grad: T
  *** grid_quadv0:                    kske: F
  *** grid_quadv0:                    kslap: F
  *** grid_quadv0:                    do_scf: T
  *** grid_quadv0:                    fde_option:                    0
  *** grid_quadv0:                    n_per_rec:                 3070
  *** grid_quadv0:                    calc_type:                    1
  *** grid_quadv0:                    grid_written: F
  *** grid_quadv0:                    grad: T
  *** grid_quadv0:                    kske: F
  *** grid_quadv0:                    kslap: F
  *** grid_quadv0:                    do_scf: T
  *** grid_quadv0:                    fde_option:                    0
  *** grid_quadv0:                    n_per_rec:                 3070
   0: nuse=   8 avail= 12500000Mb on .
   1: nuse=   8 avail= 12500000Mb on .
   2: nuse=   8 avail= 12500000Mb on .
   6: nuse=   8 avail= 12500000Mb on .
   3: nuse=   8 avail= 12500000Mb on .
   4: nuse=   8 avail= 12500000Mb on .
   5: nuse=   8 avail= 12500000Mb on .
   7: nuse=   8 avail= 12500000Mb on .
 l_cube input   11.00

  atom type   l_cube   no. cubes   segmts   rad   sub
 ----------- -------- ----------- -------- ----- -----
        1     14.00        34         3      21     8

 Grid_pts file          = ./as.gridpts.0
 Record size in doubles =  12289        No. of grid_pts per rec  =   3070
 Max. records in memory =     12        Max. recs in file   = 126656358

 me   0 NQTOTC NQ/cube   22106    1163
 me   1 NQTOTC NQ/cube   13618    2723
 me   2 NQTOTC NQ/cube   13236    6618
 me   3 NQTOTC NQ/cube   10754    5377
 me   4 NQTOTC NQ/cube   11537   11537
 me   5 NQTOTC NQ/cube   10689   10689
 me   6 NQTOTC NQ/cube   11006    3668
 me   7 NQTOTC NQ/cube    9986    9986

 XC quadr. integrated density :      33.000000 npts:   102779 nctrs:        1

    Fock_xc Build Time:          0.2s


     <<<<<<    Before call to GETVCOUL.   >>>>>>
     <<<<<< date:  Apr 24  time: 11:06:21 >>>>>>



     <<<<<<    End of parallel region.    >>>>>>
     <<<<<< date:  Apr 24  time: 11:06:21 >>>>>>

    Total Fock Matrix Build Time:          2.4s
 Etnew, Ecore, Ecoul, Exc(1), Exc(2), Totsic:   -2235.5353088868792       -3112.1053059803753        959.29414394840637       -82.724146854910487        0.0000000000000000        0.0000000000000000     
  delta =   -2235.5353088868792     


         Total DFT energy =    -2235.535308886879
      One electron energy =    -3112.105305980375
           Coulomb energy =      959.294143948406
    Exchange-Corr. energy =      -82.724146854910
 Nuclear repulsion energy =        0.000000000000

 Numeric. integr. density =       32.999999999385

     Total iterative time =     11.0s


  delta =   -2235.5353088868792     
  delta =   -2235.5353088868792     
  delta =   -2235.5353088868792     
  delta =   -2235.5353088868792     
  delta =   -2235.5353088868792     
  delta =   -2235.5353088868792     
  delta =   -2235.5353088868792     


     <<<<<<        calling diis driver    >>>>>>
     <<<<<< date:  Apr 24  time: 11:06:21 >>>>>>

 nhist                     1  pulay matrix 
   0.0000E+00
  -1.0000E+00   7.6705E-01


     <<<<<<         called diis driver    >>>>>>
     <<<<<< date:  Apr 24  time: 11:06:21 >>>>>>


 global array: fock transf[1:69,1:69],  handle: -940 

            1           2           3           4           5           6  
       ----------- ----------- ----------- ----------- ----------- -----------
   1       8.63570   -14.42540    -0.00000    -0.00000     0.00000     6.99749
   2     -14.42540    44.64749    -0.00000     0.00000     0.00000   -30.16044
   3      -0.00000    -0.00000     2.36811    -0.00000     0.00000     0.00000
   4      -0.00000     0.00000    -0.00000     2.36811    -0.00000     0.00000
   5       0.00000     0.00000     0.00000    -0.00000     2.36811    -0.00000
   6       6.99749   -30.16044     0.00000     0.00000    -0.00000    24.73937
   7      -0.00000    -0.00000     0.64130    -0.19155    -0.32334    -0.00000
   8      -0.00000    -0.00000     0.09925     0.70313    -0.21968     0.00000
   9       0.00000     0.00000    -0.36248    -0.14636    -0.63221     0.00000
  10      -0.17402     0.94256    -0.00000    -0.00000     0.00000    -1.22272
  11      -0.00000     0.00000    -0.00000    -0.00000     0.00000    -0.00000
  12      -0.24453     1.26985    -0.00000     0.00000     0.00000    -1.20959
  13      -0.00000    -0.00000     0.00000     0.00000    -0.00000     0.00000
  14       0.00000     0.00000    -0.00000    -0.00000    -0.00000    -0.00000
  15       0.00000    -0.00000     0.00000    -0.00000     0.00000    -0.00000
  16       0.00000     0.00000    -0.00000    -0.00000    -0.00000    -0.00000
  17      -0.00000    -0.00000     0.00000    -0.00000     0.00000     0.00000
  18      -0.00000     0.00000    -0.00000    -0.00000    -0.00000     0.00000
  19       0.00000    -0.00000     0.06151    -0.09436     0.02404     0.00000
  20      -0.00000     0.00000    -0.06372    -0.06051    -0.07445     0.00000
  21      -0.00000     0.00000    -0.07363    -0.02646     0.08452     0.00000
  22       0.00000     0.00000     0.00000    -0.00000    -0.00000    -0.00000
  23      -0.00000     0.00000    -0.00000     0.00000    -0.00000     0.00000
  24      -0.00000    -0.00000     0.00000     0.00000     0.00000     0.00000
  25       0.00000     0.00000    -0.18677    -0.29283    -0.26706     0.00000
  26      -0.00000    -0.00000    -0.08520     0.31799    -0.28909    -0.00000
  27      -0.00000    -0.00000     0.38705    -0.07130    -0.19251    -0.00000
  28      -0.00000     0.00000    -0.00000    -0.00000    -0.00000    -0.00000
  29      -0.00000     0.00000     0.00000     0.00000     0.00000     0.00000
  30       0.00000     0.00000    -0.00000    -0.00000     0.00000    -0.00000
  31      -0.00000    -0.00000     0.00000     0.00000     0.00000    -0.00000
  32      -0.00000    -0.00000    -0.00000     0.00000     0.00000     0.00000
  33       0.00000     0.00000     0.00000    -0.00000     0.00000     0.00000
  34      -0.00000    -0.00000     0.04669    -0.02392     0.02156    -0.00000
  35       0.00000     0.00000    -0.00968    -0.04664    -0.03079    -0.00000
  36      -0.00000    -0.00000     0.03071     0.02167    -0.04247    -0.00000
  37       0.04549     0.02178    -0.00000    -0.00000     0.00000    -0.28345
  38      -0.00000     0.00000    -0.00000    -0.00000    -0.00000     0.00000
  39      -0.00000    -0.00000     0.00000     0.00000    -0.00000     0.00000
  40       0.00000    -0.00000     0.00000    -0.00000    -0.00000     0.00000
  41       0.00000     0.00000    -0.00000    -0.00000     0.00000    -0.00000
  42      -0.00000     0.00000     0.00000     0.00000     0.00000     0.00000
  43      -0.00000     0.00000    -0.02016     0.03096    -0.01362    -0.00000
  44       0.00000     0.00000    -0.03109    -0.02320    -0.00673    -0.00000
  45      -0.00000    -0.00000     0.01332    -0.00731    -0.03632     0.00000
  46       0.00000     0.00000    -0.00000     0.00000     0.00000    -0.00000
  47       0.00000    -0.00000    -0.00000    -0.00000     0.00000    -0.00000
  48      -0.00000     0.00000    -0.00000    -0.00000    -0.00000     0.00000
  49      -0.00000     0.00000    -0.00000     0.00000     0.00000     0.00000
  50      -0.00000    -0.00000     0.00000     0.00000     0.00000     0.00000
  51       0.14009    -0.37759    -0.00000     0.00000     0.00000     0.12969
  52      -0.00000    -0.00000     0.00627     0.01540    -0.00112    -0.00000
  53      -0.00000    -0.00000    -0.01139     0.00379    -0.01156    -0.00000
  54      -0.00000    -0.00000     0.01043    -0.00511    -0.01195     0.00000
  55       0.02768    -0.20433    -0.00000     0.00000     0.00000     0.21304
  56      -0.00000    -0.00000    -0.02778     0.01193     0.02817     0.00000
  57       0.00000    -0.00000    -0.01811     0.02425    -0.02813     0.00000
  58      -0.00000    -0.00000    -0.02466    -0.03126    -0.01107     0.00000
  59       0.00000     0.00000    -0.00000     0.00000     0.00000     0.00000
  60      -0.00000     0.00000    -0.00000     0.00000    -0.00000     0.00000
  61       0.00000     0.00000     0.01307    -0.01791     0.03780    -0.00000
  62       0.00000     0.00000    -0.03943     0.00793     0.01739    -0.00000
  63       0.00000    -0.00000    -0.01395    -0.03920    -0.01375     0.00000
  64      -0.01749     0.21286    -0.00000    -0.00000    -0.00000    -0.19738
  65      -0.22277     0.69059     0.00000    -0.00000    -0.00000    -0.41030
  66      -0.00000    -0.00000    -0.01558    -0.01626    -0.02759     0.00000
  67       0.00000     0.00000    -0.01854    -0.02045     0.02252     0.00000
  68      -0.00000    -0.00000     0.02612    -0.02421    -0.00048     0.00000
  69      -0.07495     0.17001     0.00000    -0.00000    -0.00000    -0.07433

            7           8           9          10          11          12  
       ----------- ----------- ----------- ----------- ----------- -----------
   1      -0.00000    -0.00000     0.00000    -0.17402    -0.00000    -0.24453
   2      -0.00000    -0.00000     0.00000     0.94256     0.00000     1.26985
   3       0.64130     0.09925    -0.36248    -0.00000    -0.00000    -0.00000
   4      -0.19155     0.70313    -0.14636    -0.00000    -0.00000     0.00000
   5      -0.32334    -0.21968    -0.63221     0.00000     0.00000     0.00000
   6      -0.00000     0.00000     0.00000    -1.22272    -0.00000    -1.20959
   7       1.04155     0.00000    -0.00000     0.00000     0.00000     0.00000
   8       0.00000     1.04155     0.00000    -0.00000     0.00000    -0.00000
   9      -0.00000     0.00000     1.04155    -0.00000     0.00000     0.00000
  10       0.00000    -0.00000    -0.00000     0.63429    -0.00000     0.87149
  11       0.00000     0.00000     0.00000    -0.00000     1.29768    -0.00000
  12       0.00000    -0.00000     0.00000     0.87149    -0.00000     2.78290
  13      -0.00000    -0.00000     0.00000     0.00000    -0.00000    -0.00000
  14      -0.00000    -0.00000    -0.00000    -0.00000     0.00000    -0.00000
  15       0.00000     0.00000     0.00000    -0.00000     0.00000     0.00000
  16      -0.00000     0.00000     0.00000     0.00000     0.00000     0.00000
  17      -0.00000    -0.00000    -0.00000     0.00000     0.00000     0.00000
  18       0.00000     0.00000     0.00000     0.00000     0.00000     0.00000
  19       0.21919    -0.28869    -0.10435    -0.00000     0.00000    -0.00000
  20      -0.02291    -0.14325     0.34818    -0.00000     0.00000     0.00000
  21      -0.30611    -0.19599    -0.10078     0.00000     0.00000     0.00000
  22      -0.00000    -0.00000     0.00000    -0.00000    -0.00000    -0.00000
  23       0.00000     0.00000     0.00000    -0.00000    -0.00000    -0.00000
  24       0.00000    -0.00000    -0.00000     0.00000    -0.40116     0.00000
  25       0.04405    -0.32219     0.54305     0.00000    -0.00000     0.00000
  26      -0.04291     0.54158     0.32480    -0.00000    -0.00000     0.00000
  27       0.62997     0.05942    -0.01585    -0.00000     0.00000    -0.00000
  28       0.00000     0.00000     0.00000     0.00000     0.00000     0.00000
  29       0.00000    -0.00000    -0.00000    -0.00000    -0.00000     0.00000
  30      -0.00000    -0.00000     0.00000    -0.00000     0.00000    -0.00000
  31       0.00000     0.00000    -0.00000    -0.00000    -0.00000    -0.00000
  32      -0.00000    -0.00000     0.00000     0.00000    -0.00000    -0.00000
  33       0.00000    -0.00000    -0.00000     0.00000    -0.00000    -0.00000
  34       0.06715    -0.04124    -0.06593     0.00000    -0.00000     0.00000
  35       0.03091    -0.06578     0.07262    -0.00000    -0.00000    -0.00000
  36       0.07136     0.06730     0.03059     0.00000     0.00000     0.00000
  37       0.00000     0.00000    -0.00000     0.26077    -0.00000     0.01333
  38       0.00000    -0.00000    -0.00000     0.00000     0.00000     0.00000
  39       0.00000     0.00000     0.00000     0.00000    -0.00000     0.00000
  40       0.00000    -0.00000    -0.00000     0.00000     0.00000     0.00000
  41      -0.00000     0.00000    -0.00000    -0.00000     0.00000    -0.00000
  42       0.00000     0.00000    -0.00000     0.00000    -0.00000    -0.00000
  43       0.02610    -0.04110    -0.02056    -0.00000     0.00000     0.00000
  44       0.02405     0.03236    -0.03417     0.00000     0.00000     0.00000
  45      -0.03916    -0.00752    -0.03468     0.00000     0.00000    -0.00000
  46      -0.00000    -0.00000     0.00000    -0.00000    -0.00000    -0.00000
  47      -0.00000    -0.00000    -0.00000     0.00000    -0.00000     0.00000
  48       0.00000    -0.00000    -0.00000     0.00000     0.00000     0.00000
  49      -0.00000     0.00000    -0.00000    -0.00000    -0.00000    -0.00000
  50       0.00000     0.00000    -0.00000     0.00000     0.00000    -0.00000
  51      -0.00000    -0.00000     0.00000    -0.15564     0.00000    -1.78168
  52       0.00140     0.01144    -0.00374    -0.00000    -0.00000     0.00000
  53      -0.00420     0.00399     0.01064     0.00000    -0.00000    -0.00000
  54       0.01128     0.00007     0.00442     0.00000    -0.00000     0.00000
  55      -0.00000    -0.00000     0.00000    -0.26539     0.00000    -1.77525
  56      -0.06499    -0.00124    -0.02111     0.00000    -0.00000    -0.00000
  57      -0.01594     0.04769     0.04628     0.00000     0.00000    -0.00000
  58      -0.01389    -0.04893     0.04564    -0.00000    -0.00000    -0.00000
  59      -0.00000     0.00000    -0.00000    -0.00000    -0.00000     0.00000
  60      -0.00000    -0.00000     0.00000    -0.00000    -0.00000     0.00000
  61      -0.00078    -0.03736    -0.04958    -0.00000     0.00000    -0.00000
  62      -0.06181    -0.00411     0.00407    -0.00000    -0.00000     0.00000
  63       0.00573    -0.04941     0.03714     0.00000     0.00000    -0.00000
  64       0.00000     0.00000    -0.00000     0.11221    -0.00000     0.76648
  65       0.00000     0.00000    -0.00000     0.16485     0.00000     1.35874
  66       0.00202    -0.00684     0.02516     0.00000     0.00000     0.00000
  67      -0.01507    -0.02090    -0.00447     0.00000     0.00000    -0.00000
  68       0.02128    -0.01415    -0.00555     0.00000     0.00000     0.00000
  69       0.00000     0.00000    -0.00000     0.00480     0.00000     0.21559

           13          14          15          16          17          18  
       ----------- ----------- ----------- ----------- ----------- -----------
   1      -0.00000     0.00000     0.00000     0.00000    -0.00000    -0.00000
   2      -0.00000     0.00000    -0.00000     0.00000    -0.00000     0.00000
   3       0.00000    -0.00000     0.00000    -0.00000     0.00000    -0.00000
   4       0.00000    -0.00000    -0.00000    -0.00000    -0.00000    -0.00000
   5      -0.00000    -0.00000     0.00000    -0.00000     0.00000    -0.00000
   6       0.00000    -0.00000    -0.00000    -0.00000     0.00000     0.00000
   7      -0.00000    -0.00000     0.00000    -0.00000    -0.00000     0.00000
   8      -0.00000    -0.00000     0.00000     0.00000    -0.00000     0.00000
   9       0.00000    -0.00000     0.00000     0.00000    -0.00000     0.00000
  10       0.00000    -0.00000    -0.00000     0.00000     0.00000     0.00000
  11      -0.00000     0.00000     0.00000     0.00000     0.00000     0.00000
  12      -0.00000    -0.00000     0.00000     0.00000     0.00000     0.00000
  13       1.29768    -0.00000     0.00000    -0.00000     0.00000    -0.00000
  14      -0.00000     1.29768    -0.00000     0.00000    -0.00000    -0.00000
  15       0.00000    -0.00000     1.29768     0.00000     0.00000    -0.00000
  16      -0.00000     0.00000     0.00000     1.15896    -0.00000    -0.00000
  17       0.00000    -0.00000     0.00000    -0.00000     1.15896     0.00000
  18      -0.00000    -0.00000    -0.00000    -0.00000     0.00000     1.15896
  19      -0.00000     0.00000     0.00000    -0.00000    -0.00000    -0.00000
  20       0.00000     0.00000    -0.00000     0.00000    -0.00000     0.00000
  21       0.00000     0.00000     0.00000    -0.00000     0.00000    -0.00000
  22      -0.00000    -0.00000     0.00000     0.00000    -0.00000     0.00000
  23       0.00000     0.00000    -0.00000     0.00000    -0.00000    -0.00000
  24      -0.00000     0.00000    -0.00000     0.00000    -0.00000    -0.00000
  25      -0.00000     0.00000     0.00000    -0.00000    -0.00000    -0.00000
  26       0.00000    -0.00000    -0.00000     0.00000    -0.00000     0.00000
  27      -0.00000     0.00000     0.00000    -0.00000    -0.00000    -0.00000
  28      -0.00000     0.00000    -0.00000     0.20015    -0.13284     0.36276
  29      -0.00000     0.00000     0.00000    -0.33702    -0.25975     0.09083
  30      -0.00000     0.00000     0.00000     0.18884    -0.32278    -0.22239
  31       0.00628    -0.39663    -0.05979    -0.00000    -0.00000    -0.00000
  32       0.39880     0.01259    -0.04164    -0.00000    -0.00000     0.00000
  33      -0.04305     0.05879    -0.39449    -0.00000    -0.00000    -0.00000
  34      -0.00000    -0.00000     0.00000     0.00000    -0.00000     0.00000
  35      -0.00000     0.00000    -0.00000    -0.00000     0.00000    -0.00000
  36      -0.00000    -0.00000    -0.00000    -0.00000     0.00000    -0.00000
  37       0.00000     0.00000    -0.00000     0.00000    -0.00000    -0.00000
  38       0.00000     0.00000     0.00000    -0.02360     0.11611    -0.21077
  39       0.00000    -0.00000    -0.00000     0.18451    -0.12722    -0.09074
  40      -0.00000     0.00000     0.00000    -0.15448    -0.16969    -0.07619
  41      -0.00000    -0.00000     0.00000    -0.00000     0.00000     0.00000
  42      -0.00000     0.00000     0.00000     0.00000    -0.00000    -0.00000
  43       0.00000    -0.00000    -0.00000     0.00000     0.00000    -0.00000
  44       0.00000     0.00000    -0.00000    -0.00000    -0.00000    -0.00000
  45      -0.00000     0.00000    -0.00000    -0.00000     0.00000    -0.00000
  46      -0.00000     0.00000    -0.00000     0.02275     0.09699     0.06569
  47      -0.00000     0.00000     0.00000    -0.11491     0.03146    -0.00665
  48       0.00000     0.00000     0.00000     0.02273     0.06199    -0.09940
  49       0.00000     0.00000     0.00000     0.00000     0.00000     0.00000
  50      -0.00000     0.00000     0.00000    -0.00000     0.00000     0.00000
  51      -0.00000    -0.00000    -0.00000    -0.00000    -0.00000     0.00000
  52      -0.00000     0.00000    -0.00000     0.00000     0.00000    -0.00000
  53      -0.00000     0.00000    -0.00000     0.00000     0.00000    -0.00000
  54      -0.00000     0.00000     0.00000     0.00000     0.00000    -0.00000
  55      -0.00000    -0.00000    -0.00000    -0.00000     0.00000     0.00000
  56      -0.00000     0.00000    -0.00000    -0.00000    -0.00000    -0.00000
  57      -0.00000    -0.00000    -0.00000     0.00000    -0.00000     0.00000
  58      -0.00000     0.00000     0.00000     0.00000     0.00000     0.00000
  59       0.00000     0.00000     0.00000    -0.00000     0.00000    -0.00000
  60       0.00000    -0.00000    -0.00000     0.00000     0.00000    -0.00000
  61      -0.00000    -0.00000     0.00000     0.00000    -0.00000     0.00000
  62       0.00000    -0.00000     0.00000     0.00000     0.00000    -0.00000
  63       0.00000    -0.00000    -0.00000    -0.00000    -0.00000    -0.00000
  64       0.00000     0.00000     0.00000     0.00000    -0.00000    -0.00000
  65       0.00000     0.00000     0.00000     0.00000     0.00000    -0.00000
  66       0.00000    -0.00000     0.00000     0.00000    -0.00000    -0.00000
  67       0.00000    -0.00000    -0.00000    -0.00000    -0.00000    -0.00000
  68      -0.00000    -0.00000    -0.00000     0.00000    -0.00000    -0.00000
  69       0.00000     0.00000    -0.00000     0.00000     0.00000    -0.00000

           19          20          21          22          23          24  
       ----------- ----------- ----------- ----------- ----------- -----------
   1       0.00000    -0.00000    -0.00000     0.00000    -0.00000    -0.00000
   2      -0.00000     0.00000     0.00000     0.00000     0.00000    -0.00000
   3       0.06151    -0.06372    -0.07363     0.00000    -0.00000     0.00000
   4      -0.09436    -0.06051    -0.02646    -0.00000     0.00000     0.00000
   5       0.02404    -0.07445     0.08452    -0.00000    -0.00000     0.00000
   6       0.00000     0.00000     0.00000    -0.00000     0.00000     0.00000
   7       0.21919    -0.02291    -0.30611    -0.00000     0.00000     0.00000
   8      -0.28869    -0.14325    -0.19599    -0.00000     0.00000    -0.00000
   9      -0.10435     0.34818    -0.10078     0.00000     0.00000    -0.00000
  10      -0.00000    -0.00000     0.00000    -0.00000    -0.00000     0.00000
  11       0.00000     0.00000     0.00000    -0.00000    -0.00000    -0.40116
  12      -0.00000     0.00000     0.00000    -0.00000    -0.00000     0.00000
  13      -0.00000     0.00000     0.00000    -0.00000     0.00000    -0.00000
  14       0.00000     0.00000     0.00000    -0.00000     0.00000     0.00000
  15       0.00000    -0.00000     0.00000     0.00000    -0.00000    -0.00000
  16      -0.00000     0.00000    -0.00000     0.00000     0.00000     0.00000
  17      -0.00000    -0.00000     0.00000    -0.00000    -0.00000    -0.00000
  18      -0.00000     0.00000    -0.00000     0.00000    -0.00000    -0.00000
  19       1.28218     0.00000     0.00000    -0.00000     0.00000     0.00000
[...]
  43      -0.00000    -0.00000     0.00000    -0.00000    -0.00000     0.00000
  44       0.00000    -0.00000    -0.00000    -0.00000    -0.00000     0.00000
  45      -0.00000     0.00000     0.00000    -0.00000    -0.00000    -0.00000
  46      -0.00000     0.00000     0.00000    -0.00000     0.00000    -0.00000
  47       0.00000    -0.00000    -0.00000    -0.00000    -0.00000     0.00000
  48      -0.00000    -0.00000    -0.00000     0.00000    -0.00000    -0.00000
  49       0.00000    -0.00000     0.00000    -0.00000    -0.00000     0.00000
  50      -7.29666     0.09999    -0.01744   -11.17761     0.17734    -0.00227
  51       0.01606    -0.10015    -7.29666     0.00064    -0.10281   -11.17854
  52      -0.10022    -7.29599     0.09992    -0.17735   -11.17713     0.10279
  53      -7.29666     0.09999    -0.01744   -11.17761     0.17734    -0.00227
  54       0.00000     0.00000    -0.00000     0.00000     0.00000    -0.00000
  55      -7.29666     0.09999    -0.01744   -11.17761     0.17734    -0.00227
  56       0.01606    -0.10015    -7.29666     0.00064    -0.10281   -11.17854
  57      -0.10022    -7.29599     0.09992    -0.17735   -11.17713     0.10279
  58       0.01606    -0.10015    -7.29666     0.00064    -0.10281   -11.17854
  59      -0.10022    -7.29599     0.09992    -0.17735   -11.17713     0.10279
  60      -6.63085     0.09087    -0.01584    -5.79808     0.09199    -0.00118
  61       0.01460    -0.09101    -6.63085     0.00033    -0.05333    -5.79856
  62      -0.09108    -6.63024     0.09081    -0.09200    -5.79783     0.05332
  63      -6.63084     0.09087    -0.01584    -5.79808     0.09199    -0.00118
  64      -0.00000    -0.00000     0.00000    -0.00000    -0.00000     0.00000
  65      -6.63084     0.09087    -0.01584    -5.79808     0.09199    -0.00118
  66       0.01460    -0.09101    -6.63085     0.00033    -0.05333    -5.79856
  67      -0.09108    -6.63024     0.09081    -0.09200    -5.79783     0.05332
  68       0.01460    -0.09101    -6.63085     0.00033    -0.05333    -5.79856
  69      -0.09108    -6.63024     0.09081    -0.09200    -5.79783     0.05332

           67          68          69  
       ----------- ----------- -----------
   1      -0.23562     1.04206     1.09908
   2      -1.63504     7.67275    16.00750
   3      -4.95658    30.98063    30.68936
   4      -3.94539    42.32270     9.55270
   5       7.65398   -19.64255    16.27273
   6      -8.17253    36.92411     6.33164
   7       0.12841     2.69352     0.66041
   8       0.00000    -0.00000    -0.00000
   9      -0.00000     0.00000     0.00000
  10       0.00000    -0.00000     0.00000
  11       0.00000    -0.00000    -0.00000
  12      -0.00000     0.00000     0.00000
  13       0.00000    -0.00000     0.00000
  14       0.00000    -0.00000    -0.00000
  15      -0.00000     0.00000     0.00000
  16       0.00000    -0.00000     0.00000
  17      -0.00000     0.00000     0.00000
  18       0.00000    -0.00000    -0.00000
  19      -0.00000     0.00000    -0.00000
  20       0.00000    -0.00000    -0.00000
  21      -0.00000     0.00000     0.00000
  22       0.00000     0.00000     0.00000
  23      -0.00000     0.00000     0.00000
  24       0.00000    -0.00000    -0.00000
  25      -0.00000    -0.00000    -0.00000
  26       0.19060    -0.79965   -17.65594
  27      -0.00000     0.00000    -0.00000
  28       0.00000    -0.00000    -0.00000
  29       0.19060    -0.79965   -17.65594
  30      -0.00000    -0.00000    -0.00000
  31       0.19060    -0.79965   -17.65594
  32      -0.65874   -11.44700    -6.86490
  33       0.00000    -0.00000     0.00000
  34       0.00000     0.00000     0.00000
  35      -0.65874   -11.44700    -6.86490
  36       0.00000     0.00000     0.00000
  37      -0.65874   -11.44700    -6.86490
  38       3.45829   -17.10547    -3.04909
  39      -0.00000     0.00000    -0.00000
  40      -0.00000     0.00000    -0.00000
  41       3.45829   -17.10547    -3.04909
  42      -0.00000     0.00000    -0.00000
  43       3.45829   -17.10547    -3.04909
  44       0.38561    -3.25123    -0.64906
  45       0.00000    -0.00000     0.00000
  46       0.00000    -0.00000     0.00000
  47       0.38561    -3.25123    -0.64906
  48       0.00000    -0.00000     0.00000
  49       0.38561    -3.25123    -0.64906
  50      -0.00000     0.00000     0.00000
  51       0.00000    -0.00000    -0.00000
  52      -0.00000     0.00000    -0.00000
  53      -0.00000     0.00000     0.00000
  54       0.00000    -0.00000     0.00000
  55      -0.00000     0.00000     0.00000
  56       0.00000    -0.00000    -0.00000
  57      -0.00000     0.00000    -0.00000
  58       0.00000    -0.00000    -0.00000
  59      -0.00000     0.00000    -0.00000
  60      -0.00000     0.00000     0.00000
  61       0.00000    -0.00000    -0.00000
  62      -0.00000    -0.00000    -0.00000
  63      -0.00000     0.00000     0.00000
  64      -0.00000    -0.00000    -0.00000
  65      -0.00000     0.00000     0.00000
  66       0.00000    -0.00000    -0.00000
  67      -0.00000    -0.00000    -0.00000
  68       0.00000    -0.00000    -0.00000
  69      -0.00000    -0.00000    -0.00000
  int_init: cando_txs set to always be  F
                                NWChem TDDFT Module
                                -------------------


            General Information
            -------------------
           No. of orbitals :     138
            Alpha orbitals :      69
             Beta orbitals :      69
        Alpha frozen cores :       0
         Beta frozen cores :       0
     Alpha frozen virtuals :       0
      Beta frozen virtuals :       0
         Spin multiplicity :       4
    Number of AO functions :      69
        Use of symmetry is : off
      Symmetry adaption is : off
         Schwarz screening :  0.10D-07

              XC Information
              --------------
              Hartree-Fock (Exact) Exchange   1.00          
              LC-wPBE(h)Exchange Functional   1.00          
     Perdew 1991 LDA Correlation Functional   1.00 local    
    PerdewBurkeErnz. Correlation Functional   1.00 non-local
           Alpha           :  0.00
           Beta            :  1.00
           Gamma           :  0.40

             TDDFT Information
             -----------------
          Calculation type : TDDFT             
         Wavefunction type : Unrestricted
          No. of electrons :      33
           Alpha electrons :      18
            Beta electrons :      15
              No. of roots :       5
          Max subspacesize :    5000
            Max iterations :     100
               Target root :       1
           Target symmetry : none
      Symmetry restriction : off
                 Algorithm : Optimal
        Davidson threshold :  0.10D-03

            Memory Information
            ------------------
          Available GA space size is       52428790478 doubles
          Available MA space size is        4194422252 doubles
          Length of a trial vector is          918     810
          Algorithm : Incore multiple tensor contraction
          Estimated peak GA usage is          35377128 doubles
          Estimated peak MA usage is             18000 doubles

    5 smallest eigenvalue differences (eV) 
--------------------------------------------------------
  No. Spin  Occ  Vir  Irrep   E(Occ)    E(Vir)   E(Diff)
--------------------------------------------------------
    1    1   17   19 a        -0.362     0.042    10.978
    2    1   18   19 a        -0.362     0.042    10.978
    3    1   16   19 a        -0.362     0.042    10.978
    4    1   17   20 a        -0.362     0.065    11.616
    5    1   18   20 a        -0.362     0.065    11.616
--------------------------------------------------------

  Entering Davidson iterations
  Unrestricted

  Iter   NTrls   NConv    DeltaV     DeltaE      Time   
  ----  ------  ------  ---------  ---------  --------- 
    1      5       0     0.60E-01   0.10+100       15.9
    2     15       0     0.34E-01   0.13E-01       16.2
    3     25       0     0.28E-01   0.16E-02       13.2
    4     35       0     0.14E-01   0.12E-02       13.1
    5     45       0     0.82E-01   0.16E-02       15.5
    6     55       0     0.12E-01   0.26E-02       19.5
    7     65       3     0.84E-03   0.32E-04       19.2
    8     69       5     0.95E-04   0.22E-06       14.3
  ----  ------  ------  ---------  ---------  --------- 
  Convergence criterion met

  Ground state a       -2235.567930056027 a.u.
  <S2> =   3.7515

  ----------------------------------------------------------------------------
  Root   1         a              0.240703668 a.u.                6.5499 eV 
  <S2> =   3.7540
  ----------------------------------------------------------------------------
     Transition Moments    X -0.85680   Y  0.00620   Z  0.00500
     Transition Moments   XX  0.00000  XY  0.00000  XZ -0.00000
     Transition Moments   YY -0.00000  YZ  0.00000  ZZ  0.00000
     Dipole Oscillator Strength                    0.1178113522
     Electric Quadrupole                           0.0000000000
     Magnetic Dipole                               0.0000000000
     Total Oscillator Strength                     0.1178113522

     Occ.   17 alpha a   ---  Virt.   19 alpha a    0.46656 X
     Occ.   17 alpha a   ---  Virt.   28 alpha a   -0.14304 X
     Occ.   18 alpha a   ---  Virt.   19 alpha a    0.83101 X
     Occ.   18 alpha a   ---  Virt.   28 alpha a   -0.25477 X
  ----------------------------------------------------------------------------
  Root   2         a              0.240703668 a.u.                6.5499 eV 
  <S2> =   3.7540
  ----------------------------------------------------------------------------
     Transition Moments    X  0.00501   Y  0.00040   Z  0.85682
     Transition Moments   XX  0.00000  XY -0.00000  XZ  0.00000
     Transition Moments   YY  0.00000  YZ -0.00000  ZZ  0.00000
     Dipole Oscillator Strength                    0.1178113522
     Electric Quadrupole                           0.0000000000
     Magnetic Dipole                               0.0000000000
     Total Oscillator Strength                     0.1178113522

     Occ.   16 alpha a   ---  Virt.   19 alpha a   -0.95302 X
     Occ.   16 alpha a   ---  Virt.   28 alpha a    0.29218 X
  ----------------------------------------------------------------------------
  Root   3         a              0.240703668 a.u.                6.5499 eV 
  <S2> =   3.7540
  ----------------------------------------------------------------------------
     Transition Moments    X -0.00619   Y -0.85682   Z  0.00044
     Transition Moments   XX  0.00000  XY  0.00000  XZ -0.00000
     Transition Moments   YY  0.00000  YZ -0.00000  ZZ  0.00000
     Dipole Oscillator Strength                    0.1178140567
     Electric Quadrupole                           0.0000000000
     Magnetic Dipole                               0.0000000000
     Total Oscillator Strength                     0.1178140567

     Occ.   17 alpha a   ---  Virt.   19 alpha a    0.83103 X
     Occ.   17 alpha a   ---  Virt.   28 alpha a   -0.25478 X
     Occ.   18 alpha a   ---  Virt.   19 alpha a   -0.46654 X
     Occ.   18 alpha a   ---  Virt.   28 alpha a    0.14303 X
  ----------------------------------------------------------------------------
  Root   4         a              0.281432868 a.u.                7.6582 eV 
  <S2> =   3.7510
  ----------------------------------------------------------------------------
     Transition Moments    X  0.08027   Y -0.00045   Z  0.24553
     Transition Moments   XX -0.00000  XY  0.00000  XZ  0.00000
     Transition Moments   YY -0.00000  YZ  0.00000  ZZ  0.00000
     Dipole Oscillator Strength                    0.0125194374
     Electric Quadrupole                           0.0000000000
     Magnetic Dipole                               0.0000000000
     Total Oscillator Strength                     0.0125194374

     Occ.   16 alpha a   ---  Virt.   24 alpha a   -0.32735 X
     Occ.   16 alpha a   ---  Virt.   26 alpha a   -0.07162 X
     Occ.   16 alpha a   ---  Virt.   27 alpha a   -0.05906 X
     Occ.   16 alpha a   ---  Virt.   32 alpha a   -0.10122 X
     Occ.   17 alpha a   ---  Virt.   25 alpha a   -0.08191 X
     Occ.   17 alpha a   ---  Virt.   27 alpha a   -0.27914 X
     Occ.   17 alpha a   ---  Virt.   36 alpha a   -0.08385 X
     Occ.   18 alpha a   ---  Virt.   23 alpha a   -0.08063 X
     Occ.   18 alpha a   ---  Virt.   26 alpha a   -0.27999 X
     Occ.   18 alpha a   ---  Virt.   34 alpha a    0.08320 X
     Occ.   15 beta  a   ---  Virt.   16 beta  a    0.20507 X
     Occ.   15 beta  a   ---  Virt.   17 beta  a    0.67112 X
     Occ.   15 beta  a   ---  Virt.   18 beta  a    0.35757 X
     Occ.   15 beta  a   ---  Virt.   21 beta  a    0.21140 X
     Occ.   15 beta  a   ---  Virt.   22 beta  a    0.06453 X
     Occ.   15 beta  a   ---  Virt.   30 beta  a   -0.09348 X
  ----------------------------------------------------------------------------
  Root   5         a              0.281432868 a.u.                7.6582 eV 
  <S2> =   3.7510
  ----------------------------------------------------------------------------
     Transition Moments    X -0.24552   Y  0.00182   Z  0.08027
     Transition Moments   XX  0.00000  XY -0.00000  XZ -0.00000
     Transition Moments   YY -0.00000  YZ  0.00000  ZZ  0.00000
     Dipole Oscillator Strength                    0.0125194374
     Electric Quadrupole                           0.0000000000
     Magnetic Dipole                               0.0000000000
     Total Oscillator Strength                     0.0125194374

     Occ.   16 alpha a   ---  Virt.   24 alpha a   -0.10710 X
     Occ.   16 alpha a   ---  Virt.   26 alpha a    0.22224 X
     Occ.   16 alpha a   ---  Virt.   27 alpha a    0.17597 X
     Occ.   16 alpha a   ---  Virt.   34 alpha a   -0.05910 X
     Occ.   16 alpha a   ---  Virt.   36 alpha a    0.05541 X
     Occ.   17 alpha a   ---  Virt.   23 alpha a    0.14308 X
     Occ.   17 alpha a   ---  Virt.   24 alpha a   -0.07836 X
     Occ.   17 alpha a   ---  Virt.   25 alpha a    0.24461 X
     Occ.   17 alpha a   ---  Virt.   27 alpha a   -0.09378 X
     Occ.   17 alpha a   ---  Virt.   35 alpha a    0.07902 X
     Occ.   18 alpha a   ---  Virt.   23 alpha a    0.24638 X
     Occ.   18 alpha a   ---  Virt.   24 alpha a   -0.14089 X
     Occ.   18 alpha a   ---  Virt.   25 alpha a   -0.14236 X
     Occ.   18 alpha a   ---  Virt.   26 alpha a   -0.09121 X
     Occ.   18 alpha a   ---  Virt.   33 alpha a    0.07599 X
     Occ.   15 beta  a   ---  Virt.   16 beta  a   -0.54524 X
     Occ.   15 beta  a   ---  Virt.   17 beta  a   -0.12839 X
     Occ.   15 beta  a   ---  Virt.   18 beta  a    0.55366 X
     Occ.   15 beta  a   ---  Virt.   21 beta  a    0.06453 X
     Occ.   15 beta  a   ---  Virt.   22 beta  a   -0.21140 X
     Occ.   15 beta  a   ---  Virt.   29 beta  a    0.09376 X

              Target root =      1
          Target symmetry = none
      Ground state energy =  -2235.567930056027
        Excitation energy =      0.240703667905
     Excited state energy =  -2235.327226388121

  stored tddft:energy   -2235.3272263881213     

 Task  times  cpu:      136.2s     wall:      158.0s


                                NWChem Input Module
                                -------------------


 Summary of allocated global arrays
-----------------------------------
  No active global arrays


MA_summarize_allocated_blocks: starting scan ...
heap block 'gridpts', handle 124, address 0x135da1a8:
	type of elements:		double precision
	number of elements:		1048456221
	address of client space:	0x135da200
	index for client space:		12455831
	total number of bytes:		8387649864
MA_summarize_allocated_blocks: scan completed: 1 heap block, 0 stack blocks
MA usage statistics:

	allocation statistics:
					      heap	     stack
					      ----	     -----
	current number of blocks	         1	         0
	maximum number of blocks	        18	        54
	current total bytes		8387649864	         0
	maximum total bytes		8388837280	 109417544
	maximum total K-bytes		   8388838	    109418
	maximum total M-bytes		      8389	       110


                                     CITATION
                                     --------
                Please cite the following reference when publishing
                           results obtained with NWChem:

          E. Apra, E. J. Bylaska, W. A. de Jong, N. Govind, K. Kowalski,
       T. P. Straatsma, M. Valiev, H. J. J. van Dam, Y. Alexeev, J. Anchell,
       V. Anisimov, F. W. Aquino, R. Atta-Fynn, J. Autschbach, N. P. Bauman,
     J. C. Becca, D. E. Bernholdt, K. Bhaskaran-Nair, S. Bogatko, P. Borowski,
         J. Boschen, J. Brabec, A. Bruner, E. Cauet, Y. Chen, G. N. Chuev,
      C. J. Cramer, J. Daily, M. J. O. Deegan, T. H. Dunning Jr., M. Dupuis,
   K. G. Dyall, G. I. Fann, S. A. Fischer, A. Fonari, H. Fruchtl, L. Gagliardi,
      J. Garza, N. Gawande, S. Ghosh, K. Glaesemann, A. W. Gotz, J. Hammond,
       V. Helms, E. D. Hermes, K. Hirao, S. Hirata, M. Jacquelin, L. Jensen,
   B. G. Johnson, H. Jonsson, R. A. Kendall, M. Klemm, R. Kobayashi, V. Konkov,
      S. Krishnamoorthy, M. Krishnan, Z. Lin, R. D. Lins, R. J. Littlefield,
      A. J. Logsdail, K. Lopata, W. Ma, A. V. Marenich, J. Martin del Campo,
   D. Mejia-Rodriguez, J. E. Moore, J. M. Mullin, T. Nakajima, D. R. Nascimento,
    J. A. Nichols, P. J. Nichols, J. Nieplocha, A. Otero-de-la-Roza, B. Palmer,
    A. Panyala, T. Pirojsirikul, B. Peng, R. Peverati, J. Pittner, L. Pollack,
   R. M. Richard, P. Sadayappan, G. C. Schatz, W. A. Shelton, D. W. Silverstein,
   D. M. A. Smith, T. A. Soares, D. Song, M. Swart, H. L. Taylor, G. S. Thomas,
            V. Tipparaju, D. G. Truhlar, K. Tsemekhman, T. Van Voorhis,
      A. Vazquez-Mayagoitia, P. Verma, O. Villa, A. Vishnu, K. D. Vogiatzis,
        D. Wang, J. H. Weare, M. J. Williamson, T. L. Windus, K. Wolinski,
        A. T. Wong, Q. Wu, C. Yang, Q. Yu, M. Zacharias, Z. Zhang, Y. Zhao,
                                and R. J. Harrison
                        "NWChem: Past, present, and future
                         J. Chem. Phys. 152, 184102 (2020)
                               doi:10.1063/5.0004997

                                      AUTHORS
                                      -------
  E. Apra, E. J. Bylaska, N. Govind, K. Kowalski, M. Valiev, D. Mejia-Rodriguez,
       A. Kunitsa, N. P. Bauman, A. Panyala, W. A. de Jong, T. P. Straatsma,
   H. J. J. van Dam, D. Wang, T. L. Windus, J. Hammond, J. Autschbach, A. Woods,
    K. Bhaskaran-Nair, J. Brabec, K. Lopata, S. A. Fischer, S. Krishnamoorthy,
     M. Jacquelin, W. Ma, M. Klemm, O. Villa, Y. Chen, V. Anisimov, F. Aquino,
     S. Hirata, M. T. Hackler, E. Hermes, L. Jensen, J. E. Moore, J. C. Becca,
      V. Konjkov, T. Risthaus, M. Malagoli, A. Marenich, A. Otero-de-la-Roza,
        J. Mullin, P. Nichols, R. Peverati, J. Pittner, Y. Zhao, P.-D. Fan,
        A. Fonari, M. J. Williamson, R. J. Harrison, J. R. Rehr, M. Dupuis,
     D. Silverstein, D. M. A. Smith, J. Nieplocha, V. Tipparaju, M. Krishnan,
     B. E. Van Kuiken, A. Vazquez-Mayagoitia, M. Swart, Q. Wu, T. Van Voorhis,
     A. A. Auer, M. Nooijen, L. D. Crosby, E. Brown, G. Cisneros, G. I. Fann,
   H. Fruchtl, J. Garza, K. Hirao, R. A. Kendall, J. A. Nichols, K. Tsemekhman,
    K. Wolinski, J. Anchell, D. E. Bernholdt, P. Borowski, T. Clark, D. Clerc,
   H. Dachsel, M. J. O. Deegan, K. Dyall, D. Elwood, E. Glendening, M. Gutowski,
   A. C. Hess, J. Jaffe, B. G. Johnson, J. Ju, R. Kobayashi, R. Kutteh, Z. Lin,
   R. Littlefield, X. Long, B. Meng, T. Nakajima, S. Niu, L. Pollack, M. Rosing,
   K. Glaesemann, G. Sandrone, M. Stave, H. Taylor, G. Thomas, J. H. van Lenthe,
                               A. T. Wong, Z. Zhang.

 Total times  cpu:      136.2s     wall:      158.4s
