 argument  1 = /home/aditisingh4812/nw_chem/nwchem-run/nwchem-run/tddft/open/open_atom/geom-MOL-0.4/b.nw
                                         
                                         


             Northwest Computational Chemistry Package (NWChem) 7.2.3
             --------------------------------------------------------


                    Environmental Molecular Sciences Laboratory
                       Pacific Northwest National Laboratory
                                Richland, WA 99352

                              Copyright (c) 1994-2022
                       Pacific Northwest National Laboratory
                            Battelle Memorial Institute

             NWChem is an open-source computational chemistry package
                        distributed under the terms of the
                      Educational Community License (ECL) 2.0
             A copy of the license is included with this distribution
                              in the LICENSE.TXT file

                                  ACKNOWLEDGMENT
                                  --------------

            This software and its documentation were developed at the
            EMSL at Pacific Northwest National Laboratory, a multiprogram
            national laboratory, operated for the U.S. Department of Energy
            by Battelle under Contract Number DE-AC05-76RL01830. Support
            for this work was provided by the Department of Energy Office
            of Biological and Environmental Research, Office of Basic
            Energy Sciences, and the Office of Advanced Scientific Computing.


           Job information
           ---------------

    hostname        = p17
    program         = /home/aditisingh4812/nw_chem/nwchem-7.2.3-release.revision-d690e065-srconly.2024-08-27/nwchem-7.2.3/bin/LINUX64/nwchem
    date            = Thu Apr 24 11:08:50 2025

    compiled        = Mon_Apr_07_18:51:54_2025
    source          = /home/aditisingh4812/nw_chem/nwchem-7.2.3-release.revision-d690e065-srconly.2024-08-27/nwchem-7.2.3
    nwchem branch   = 7.2.3
    nwchem revision = d690e065
    ga revision     = 5.8.0
    use scalapack   = F
    input           = /home/aditisingh4812/nw_chem/nwchem-run/nwchem-run/tddft/open/open_atom/geom-MOL-0.4/b.nw
    prefix          = b.
    data base       = ./b.db
    status          = startup
    nproc           =        8
    time left       =     -1s



           Memory information
           ------------------

    heap     = 2621440000 doubles =  20000.0 Mbytes
    stack    = 2621439997 doubles =  20000.0 Mbytes
    global   = 6553600000 doubles =  50000.0 Mbytes (distinct from heap & stack)
    total    = ********** doubles =  90000.0 Mbytes
    verify   = yes
    hardfail = no 


           Directory information
           ---------------------

  0 permanent = .
  0 scratch   = .




                                NWChem Input Module
                                -------------------



 Scaling coordinates for geometry "geometry" by  1.889725989
 (inverse scale =  0.529177249)



                             Geometry "geometry" -> ""
                             -------------------------

 Output coordinates in angstroms (scale by  1.889725989 to convert to a.u.)

  No.       Tag          Charge          X              Y              Z
 ---- ---------------- ---------- -------------- -------------- --------------
    1 B                    5.0000     0.00000000     0.00000000     0.00000000

      Atomic Mass 
      ----------- 

      B                 11.009310


 Effective nuclear repulsion energy (a.u.)       0.0000000000

            Nuclear Dipole moment (a.u.) 
            ----------------------------
        X                 Y               Z
 ---------------- ---------------- ----------------
     0.0000000000     0.0000000000     0.0000000000


            XYZ format geometry
            -------------------
     1
 geometry
 B                     0.00000000     0.00000000     0.00000000



 Summary of "ao basis" -> "" (cartesian)
 ------------------------------------------------------------------------------
       Tag                 Description            Shells   Functions and Types
 ---------------- ------------------------------  ------  ---------------------
 *                        aug-cc-pVTZ                 on all atoms 


  pbe96 is a nonlocal functional; adding pw91lda local functional. 

                                 NWChem DFT Module
                                 -----------------


                      Basis "ao basis" -> "ao basis" (cartesian)
                      -----
  B (Boron)
  ---------
            Exponent  Coefficients 
       -------------- ---------------------------------------------------------
  1 S  5.47300000E+03  0.000555
  1 S  8.20900000E+02  0.004291
  1 S  1.86800000E+02  0.021949
  1 S  5.28300000E+01  0.084441
  1 S  1.70800000E+01  0.238557
  1 S  5.99900000E+00  0.435072
  1 S  2.20800000E+00  0.341955
  1 S  2.41500000E-01 -0.009545

  2 S  5.47300000E+03 -0.000112
  2 S  8.20900000E+02 -0.000868
  2 S  1.86800000E+02 -0.004484
  2 S  5.28300000E+01 -0.017683
  2 S  1.70800000E+01 -0.053639
  2 S  5.99900000E+00 -0.119005
  2 S  2.20800000E+00 -0.165824
  2 S  2.41500000E-01  0.595981

  3 S  5.87900000E-01  1.000000

  4 S  8.61000000E-02  1.000000

  5 S  2.91400000E-02  1.000000

  6 P  1.20500000E+01  0.013118
  6 P  2.61300000E+00  0.079896
  6 P  7.47500000E-01  0.277275

  7 P  2.38500000E-01  1.000000

  8 P  7.69800000E-02  1.000000

  9 P  2.09600000E-02  1.000000

 10 D  6.61000000E-01  1.000000

 11 D  1.99000000E-01  1.000000

 12 D  6.04000000E-02  1.000000

 13 F  4.90000000E-01  1.000000

 14 F  1.63000000E-01  1.000000



 Summary of "ao basis" -> "ao basis" (cartesian)
 ------------------------------------------------------------------------------
       Tag                 Description            Shells   Functions and Types
 ---------------- ------------------------------  ------  ---------------------
 B                        aug-cc-pVTZ               14       55   5s4p3d2f




 Summary of "ao basis" -> "ao basis" (cartesian)
 ------------------------------------------------------------------------------
       Tag                 Description            Shells   Functions and Types
 ---------------- ------------------------------  ------  ---------------------
 B                        aug-cc-pVTZ               14       55   5s4p3d2f




                         Geometry "geometry" -> "geometry"
                         ---------------------------------

 Output coordinates in angstroms (scale by  1.889725989 to convert to a.u.)

  No.       Tag          Charge          X              Y              Z
 ---- ---------------- ---------- -------------- -------------- --------------
    1 B                    5.0000     0.00000000     0.00000000     0.00000000

      Atomic Mass 
      ----------- 

      B                 11.009310


 Effective nuclear repulsion energy (a.u.)       0.0000000000

            Nuclear Dipole moment (a.u.) 
            ----------------------------
        X                 Y               Z
 ---------------- ---------------- ----------------
     0.0000000000     0.0000000000     0.0000000000


                      Basis "ao basis" -> "ao basis" (cartesian)
                      -----
  B (Boron)
  ---------
            Exponent  Coefficients 
       -------------- ---------------------------------------------------------
  1 S  5.47300000E+03  0.256655
  1 S  8.20900000E+02  0.478260
  1 S  1.86800000E+02  0.806000
  1 S  5.28300000E+01  1.202545
  1 S  1.70800000E+01  1.456618
  1 S  5.99900000E+00  1.212014
  1 S  2.20800000E+00  0.450148
  1 S  2.41500000E-01 -0.002390

  2 S  5.47300000E+03 -0.089117
  2 S  8.20900000E+02 -0.166461
  2 S  1.86800000E+02 -0.283318
  2 S  5.28300000E+01 -0.433303
  2 S  1.70800000E+01 -0.563536
  2 S  5.99900000E+00 -0.570427
  2 S  2.20800000E+00 -0.375597
  2 S  2.41500000E-01  0.256741

  3 S  5.87900000E-01  0.478506

  4 S  8.61000000E-02  0.113282

  5 S  2.91400000E-02  0.050266

  6 P  1.20500000E+01  1.245729
  6 P  2.61300000E+00  1.122720
  6 P  7.47500000E-01  0.815167

  7 P  2.38500000E-01  0.237575

  8 P  7.69800000E-02  0.057798

  9 P  2.09600000E-02  0.011368

 10 D  6.61000000E-01  0.797558

 11 D  1.99000000E-01  0.097589

 12 D  6.04000000E-02  0.012112

 13 F  4.90000000E-01  0.295730

 14 F  1.63000000E-01  0.024853



    Basis function labels
    ---------------------
       No.  Atm El Type
       ---  --- -- ----
        1    1 B  s          
        2    1 B  s          
        3    1 B  s          
        4    1 B  s          
        5    1 B  s          
        6    1 B  px         
        7    1 B  py         
        8    1 B  pz         
        9    1 B  px         
       10    1 B  py         
       11    1 B  pz         
       12    1 B  px         
       13    1 B  py         
       14    1 B  pz         
       15    1 B  px         
       16    1 B  py         
       17    1 B  pz         
       18    1 B  dxx        
       19    1 B  dxy        
       20    1 B  dxz        
       21    1 B  dyy        
       22    1 B  dyz        
       23    1 B  dzz        
       24    1 B  dxx        
       25    1 B  dxy        
       26    1 B  dxz        
       27    1 B  dyy        
       28    1 B  dyz        
       29    1 B  dzz        
       30    1 B  dxx        
       31    1 B  dxy        
       32    1 B  dxz        
       33    1 B  dyy        
       34    1 B  dyz        
       35    1 B  dzz        
       36    1 B  fxxx       
       37    1 B  fxxy       
       38    1 B  fxxz       
       39    1 B  fxyy       
       40    1 B  fxyz       
       41    1 B  fxzz       
       42    1 B  fyyy       
       43    1 B  fyyz       
       44    1 B  fyzz       
       45    1 B  fzzz       
       46    1 B  fxxx       
       47    1 B  fxxy       
       48    1 B  fxxz       
       49    1 B  fxyy       
       50    1 B  fxyz       
       51    1 B  fxzz       
       52    1 B  fyyy       
       53    1 B  fyyz       
       54    1 B  fyzz       
       55    1 B  fzzz       
  int_init: cando_txs set to always be  F

 Schwarz integral screening summary 
 ---------------------------------- 

        No. of atom pairs =       1
       No. of shell pairs =     105

 Atomic screening 

   value      no.     value      no.     value      no.     value      no.   
  -------- ------    -------- ------    -------- ------    -------- ------   
  0.00D+00      0    1.00D-13      0    1.00D-12      0    1.00D-11      0
  1.00D-10      0    1.00D-09      0    1.00D-08      0    1.00D-07      0
  1.00D-06      0    1.00D-05      0    1.00D-04      0    1.00D-03      0
  1.00D-02      0    1.00D-01      0    1.00D+00      1    1.00D+01      0


 Shell screening 

   value      no.     value      no.     value      no.     value      no.   
  -------- ------    -------- ------    -------- ------    -------- ------   
  0.00D+00      0    1.00D-13      0    1.00D-12      0    1.00D-11      0
  1.00D-10      0    1.00D-09      0    1.00D-08      0    1.00D-07      0
  1.00D-06      0    1.00D-05      0    1.00D-04      0    1.00D-03      1
  1.00D-02      6    1.00D-01     40    1.00D+00     58    1.00D+01      0


  Caching 1-el integrals 
  atom                     1  - neighbor  & S                     1   10.000000000000000       exp AB    2.0960000000000017E-002   2.0960000000000017E-002
 zmins =     0.020960000    0.020960000 lprod =   2 range =        24.07 acc   0.10D-07
 sh     0.000000000
  Center:                     1  Radial Pts. & Wghts. 
    1        0.000006587           8.5755147E-16
    2        0.000052699           2.1953616E-13
    3        0.000177862           5.6266792E-12
    4        0.000421605           5.6207367E-11
    5        0.000823472           3.3506169E-10
    6        0.001423023           1.4409585E-09
    7        0.002259847           4.9468972E-09
    8        0.003373577           1.4401608E-08
    9        0.004803900           3.6967000E-08
   10        0.006590579           8.5921683E-08
   11        0.008773471           1.8429926E-07
   12        0.011392549           3.6997061E-07
   13        0.014487926           7.0252236E-07
   14        0.018099883           1.2723300E-06
   15        0.022268900           2.2122743E-06
   16        0.027035684           3.7126040E-06
   17        0.032441206           6.0395096E-06
   18        0.038526742           9.5580397E-06
   19        0.045333906           1.4760067E-05
   20        0.052904700           2.2298097E-05
   21        0.061281557           3.3025811E-05
   22        0.070507392           4.8046343E-05
   23        0.080625653           6.8769410E-05
   24        0.091680380           9.6978578E-05
   25        0.103716264           1.3491009E-04
   26        0.116778712           1.8534488E-04
   27        0.130913913           2.5171563E-04
   28        0.146168916           3.3823093E-04
   29        0.162591701           4.5001898E-04
   30        0.180231269           5.9329354E-04
   31        0.199137727           7.7554522E-04
   32        0.219362383           1.0057617E-03
   33        0.240957848           1.2946808E-03
   34        0.263978141           1.6550820E-03
   35        0.288478813           2.1021197E-03
   36        0.314517061           2.6537078E-03
   37        0.342151869           3.3309591E-03
   38        0.371444147           4.1586909E-03
   39        0.402456888           5.1660052E-03
   40        0.435255331           6.3869546E-03
   41        0.469907144           7.8613078E-03
   42        0.506482612           9.6354298E-03
   43        0.545054851           1.1763295E-02
   44        0.585700032           1.4307651E-02
   45        0.628497628           1.7341370E-02
   46        0.673530680           2.0948993E-02
   47        0.720886091           2.5228532E-02
   48        0.770654939           3.0293541E-02
   49        0.822932828           3.6275533E-02
   50        0.877820265           4.3326768E-02
   51        0.935423080           5.1623513E-02
   52        0.995852877           6.1369835E-02
   53        1.059227548           7.2802028E-02
   54        1.125671818           8.6193801E-02
   55        1.195317872           1.0186236E-01
   56        1.268306027           1.2017556E-01
   57        1.344785496           1.4156034E-01
   58        1.424915230           1.6651270E-01
   59        1.508864860           1.9560948E-01
   60        1.596815755           2.2952248E-01
   61        1.688962204           2.6903515E-01
   62        1.785512751           3.1506270E-01
   63        1.886691700           3.6867615E-01
   64        1.992740824           4.3113141E-01
   65        2.103921302           5.0390439E-01
   66        2.220515931           5.8873373E-01
   67        2.342831659           6.8767293E-01
   68        2.471202491           8.0315434E-01
   69        2.605992843           9.3806791E-01
   70        2.747601435           1.0958589E+00
   71        2.896465809           1.2806497E+00
   72        3.053067620           1.4973920E+00
   73        3.217938856           1.7520600E+00
   74        3.391669182           2.0518942E+00
   75        3.574914678           2.4057151E+00
   76        3.768408283           2.8243266E+00
   77        3.972972379           3.3210414E+00
   78        4.189534041           3.9123711E+00
   79        4.419143695           4.6189406E+00
   80        4.662998104           5.4667156E+00
   81        4.922468975           6.4886658E+00
   82        5.199138898           7.7270524E+00
   83        5.494847023           9.2366156E+00
   84        5.811747796           1.1089088E+01
   85        6.152387522           1.3379696E+01
   86        6.519805677           1.6236712E+01
   87        6.917671214           1.9835784E+01
   88        7.350469478           2.4421987E+01
   89        7.823764087           3.0344697E+01
   90        8.344573034           3.8114547E+01
   91        8.921924542           4.8499997E+01
   92        9.567706801           6.2698387E+01
   93       10.298020288           8.2655288E+01
   94       11.135437842           1.1170004E+02
   95       12.113018767           1.5591567E+02
   96       13.282015905           2.2741105E+02
   97       14.728292453           3.5329349E+02
   98       16.612812311           6.0564059E+02
   99       19.296945307           1.2384540E+03
  100       23.933793588           3.8491443E+03
     irreducible set of Lebedev Angular points ;
  0.009523809523810  1.000000000000000  0.000000000000000  0.000000000000000
  0.032142857142857  0.577350269189626  0.577350269189626  0.577350269189626
  0.028571428571429  0.459700843380983  0.000000000000000  0.888073833977115
   total no. of   reducible points:  38; test:  1.00000000
  0.012698412698413  1.000000000000000  0.000000000000000  0.000000000000000
  0.022574955908289  0.707106781186547  0.707106781186547  0.000000000000000
  0.021093750000000  0.577350269189626  0.577350269189626  0.577350269189626
  0.020173335537919  0.301511344577764  0.301511344577764  0.904534033733291
   total no. of   reducible points:  50; test:  1.00000000
  0.000513067179734  1.000000000000000  0.000000000000000  0.000000000000000
  0.016604069565742  0.707106781186547  0.707106781186547  0.000000000000000
 -0.029586038961039  0.577350269189626  0.577350269189626  0.577350269189626
  0.026576207082159  0.480384461415261  0.480384461415261  0.733799385705343
  0.016522170993716  0.320772648980776  0.000000000000000  0.947156221362588
   total no. of   reducible points:  74; test:  1.00000000
  0.011544011544012  1.000000000000000  0.000000000000000  0.000000000000000
  0.011943909085856  0.577350269189626  0.577350269189626  0.577350269189626
  0.011110555710603  0.369602846454150  0.369602846454150  0.852518311701268
  0.011876501294537  0.694354006602666  0.694354006602666  0.189063552885395
  0.011812303746904  0.374243039090341  0.000000000000000  0.927330657151172
   total no. of   reducible points:  86; test:  1.00000000
  0.003828270494937  1.000000000000000  0.000000000000000  0.000000000000000
  0.009793737512488  0.577350269189626  0.577350269189626  0.577350269189626
  0.008211737283191  0.185115635344736  0.185115635344736  0.965124035086594
  0.009942814891178  0.690421048382292  0.690421048382292  0.215957291845848
  0.009595471336071  0.395689473055942  0.395689473055942  0.828769981252592
  0.009694996361663  0.478369028812150  0.000000000000000  0.878158910604066
   total no. of   reducible points: 110; test:  1.00000000
  0.000599631368862  1.000000000000000  0.000000000000000  0.000000000000000
  0.007372999718621  0.707106781186547  0.707106781186547  0.000000000000000
  0.007210515360144  0.577350269189626  0.577350269189626  0.577350269189626
  0.007116355493118  0.676441040011426  0.676441040011426  0.291298882209527
  0.006753829486314  0.417496122796545  0.417496122796545  0.807089818359583
  0.007574394159054  0.157467667203908  0.157467667203908  0.974888643677173
  0.006991087353303  0.140355381171318  0.449332832326956  0.882270011260323
   total no. of   reducible points: 146; test:  1.00000000
  0.005544842902037  1.000000000000000  0.000000000000000  0.000000000000000
  0.006071332770671  0.707106781186547  0.707106781186547  0.000000000000000
  0.006383674773515  0.577350269189626  0.577350269189626  0.577350269189626
  0.005183387587748  0.255125262111413  0.255125262111413  0.932642590312691
  0.006317929009814  0.674360146036277  0.674360146036277  0.300793595137701
  0.006201670006589  0.431891069671941  0.431891069671941  0.791795559393492
  0.005477143385137  0.261393136033599  0.000000000000000  0.965232421976448
  0.005968383987681  0.499045316179604  0.144663074432512  0.854415804684659
   total no. of   reducible points: 170; test:  1.00000000
  0.001782340447245  1.000000000000000  0.000000000000000  0.000000000000000
  0.005716905949977  0.707106781186547  0.707106781186547  0.000000000000000
  0.005573383178849  0.577350269189626  0.577350269189626  0.577350269189626
  0.005608704082588  0.671297344269523  0.671297344269523  0.314196994182586
  0.005158237711805  0.289246562757544  0.289246562757544  0.912509096867474
  0.005518771467274  0.444693317871744  0.444693317871744  0.777493219314767
  0.004106777028169  0.129933544765007  0.129933544765007  0.982972302707253
  0.005051846064615  0.345770219761128  0.000000000000000  0.938319218137592
  0.005530248916233  0.159041710538353  0.836036015482459  0.525118572443642
   total no. of   reducible points: 194; test:  1.00000000
 -0.055226399197273  1.000000000000000  0.000000000000000  0.000000000000000
  0.004450274607445  0.577350269189626  0.577350269189626  0.577350269189626
  0.004496841067921  0.449204468739761  0.449204468739761  0.772289253148364
  0.005049153450479  0.252041949021020  0.252041949021020  0.934317778845812
  0.003976408018052  0.698190665844724  0.698190665844724  0.158302205463478
  0.004401400650381  0.658740524346096  0.658740524346096  0.363485684956727
  0.017245443505444  0.040385440500977  0.040385440500977  0.998367683967727
  0.004231083095357  0.582384230971558  0.000000000000000  0.812913653173365
  0.005198069864064  0.354587739051869  0.000000000000000  0.935022745880593
  0.004695720972569  0.227218180899819  0.486466153588665  0.843636521068894
   total no. of   reducible points: 230; test:  1.00000000
 -0.001313769127327  1.000000000000000  0.000000000000000  0.000000000000000
 -0.002522728704859  0.707106781186547  0.707106781186547  0.000000000000000
  0.004186853881701  0.577350269189626  0.577350269189626  0.577350269189626
  0.005315167977811  0.703937339158548  0.703937339158548  0.094575076403713
  0.004047142377086  0.101252624857241  0.101252624857241  0.989694807462905
  0.004112482394407  0.464744872642054  0.464744872642054  0.753673939250816
  0.003595584899759  0.327742065497163  0.327742065497163  0.886098344997499
  0.004256131351428  0.662033866369997  0.662033866369997  0.351315128564633
  0.004229582700647  0.850650808352040  0.000000000000000  0.525731112119134
  0.004080914225781  0.323348454269290  0.115311201100970  0.939227929749916
  0.004071467593831  0.231479015871260  0.524493924092236  0.819343388819120
   total no. of   reducible points: 266; test:  1.00000000
  0.000854591172513  1.000000000000000  0.000000000000000  0.000000000000000
  0.003599119285026  0.577350269189626  0.577350269189626  0.577350269189626
  0.003449788424306  0.351564034557011  0.351564034557011  0.867643624544083
  0.003604822601420  0.656632941021961  0.656632941021961  0.371034178384821
  0.003576729661743  0.472905413258100  0.472905413258100  0.743452042987556
  0.002352101413689  0.096183085226148  0.096183085226148  0.990705621379408
  0.003108953122414  0.221964523629418  0.221964523629418  0.949454317226443
  0.003650045807677  0.701176641608955  0.701176641608955  0.129238672710514
  0.002982344963172  0.264415288706066  0.000000000000000  0.964408914879206
  0.003600820932216  0.571895589187896  0.000000000000000  0.820326419827759
  0.003571540554273  0.251003475177047  0.800072749407395  0.544867737258077
  0.003392312205006  0.123354853258333  0.412772408316853  0.902442529533000
   total no. of   reducible points: 302; test:  1.00000000
  0.003006796749454  1.000000000000000  0.000000000000000  0.000000000000000
  0.003050627745651  0.577350269189626  0.577350269189626  0.577350269189626
  0.001621104600289  0.706896546391232  0.706896546391232  0.024383301669356
  0.003005701484902  0.479468262571203  0.479468262571203  0.734996850587746
  0.002990992529654  0.192753315487802  0.192753315487802  0.962129055136014
  0.002982170644108  0.693035796132712  0.693035796132712  0.198501311223365
  0.002721564237311  0.360830211552009  0.360830211552009  0.860001812127547
  0.003033513795811  0.649848616149617  0.649848616149617  0.394199888605839
  0.003007949555219  0.193294501323034  0.000000000000000  0.981140782843257
  0.002881964603055  0.380049491989930  0.000000000000000  0.924966152698679
  0.002958357626536  0.289955882549957  0.793453785658232  0.535123047718276
  0.003036020026407  0.096841214551040  0.828080150668686  0.552182074349399
  0.002832187403926  0.183343464704166  0.907465826530513  0.378009189874487
   total no. of   reducible points: 350; test:  1.00000000
  0.000526589796822  1.000000000000000  0.000000000000000  0.000000000000000
  0.002548219972003  0.707106781186547  0.707106781186547  0.000000000000000
  0.002512317418927  0.577350269189626  0.577350269189626  0.577350269189626
  0.002530403801186  0.690934630750911  0.690934630750911  0.212646824707552
  0.002014279020919  0.177483605460916  0.177483605460916  0.967987158791473
  0.002501725168403  0.491434263778475  0.491434263778475  0.719016501040843
  0.002513267174598  0.645666470742426  0.645666470742426  0.407712664897770
  0.002302694782227  0.286128901030764  0.286128901030764  0.914472801120872
  0.001462495621595  0.075680843671780  0.075680843671780  0.994255912631278
  0.002445373437313  0.392725976336800  0.392725976336800  0.831584400419232
  0.002417442375639  0.881813287779429  0.000000000000000  0.471598691151316
  0.001910951282180  0.977642811118265  0.000000000000000  0.210272522857307
  0.002416930044325  0.205482369640304  0.868946032287241  0.450233038258263
  0.002512236854563  0.590515704892527  0.799927854385729  0.106801826075805
  0.002496644054553  0.555015236107681  0.771746262691590  0.310428403516654
  0.002236607760438  0.937180985855372  0.334436314534346  0.099217696364292
   total no. of   reducible points: 434; test:  1.00000000
  0.000309512129531  1.000000000000000  0.000000000000000  0.000000000000000
  0.001852379698597  0.577350269189626  0.577350269189626  0.577350269189626
  0.001871790639278  0.704095493822747  0.704095493822747  0.092190407076898
  0.001858812585438  0.680774406645524  0.680774406645524  0.270356088359165
  0.001852028828296  0.637254693925875  0.637254693925875  0.433373868777154
  0.001846715956151  0.504441970780036  0.504441970780036  0.700768575373573
  0.001818471778163  0.421576178401097  0.421576178401097  0.802836877335274
  0.001749564657281  0.331792073647212  0.331792073647212  0.883078727934133
  0.001617210647254  0.238473670142189  0.238473670142189  0.941414158220403
  0.001384737234852  0.145903644915776  0.145903644915776  0.978480583762694
  0.000976433116505  0.060950341155072  0.060950341155072  0.996278129754016
  0.001857161196774  0.611684344200988  0.000000000000000  0.791101929626902
  0.001705153996396  0.396475534819986  0.000000000000000  0.918045287711454
  0.001300321685886  0.172478200990772  0.000000000000000  0.985013335028002
  0.001842866472905  0.561026380862206  0.351828092773352  0.749310611904116
  0.001802658934377  0.474239284255198  0.263471665593795  0.840047488359050
  0.001849830560444  0.598412649788538  0.181664084036021  0.780320742479920
  0.001713904507107  0.379103540769556  0.172079522565688  0.909213475092374
  0.001555213603397  0.277867319058624  0.082130215819325  0.957102074310073
  0.001802239128009  0.503356427107512  0.089992058420749  0.859379855890721
   total no. of   reducible points: 590; test:  1.00000000
  0.000219294208818  1.000000000000000  0.000000000000000  0.000000000000000
  0.001436433617319  0.707106781186547  0.707106781186547  0.000000000000000
  0.001421940344336  0.577350269189626  0.577350269189626  0.577350269189626
  0.000679812351105  0.050872044105024  0.050872044105024  0.997408677652823
  0.000991318423529  0.122819879017883  0.122819879017883  0.984799753572301
  0.001180207833239  0.202689081440879  0.202689081440879  0.958036675983391
  0.001296599602081  0.284774515646429  0.284774515646429  0.915317950483155
  0.001365871427428  0.365671907897803  0.365671907897803  0.855901928697887
  0.001402988604775  0.442826488671347  0.442826488671347  0.779621319527635
  0.001418645563596  0.514061962724974  0.514061962724974  0.686644447264154
  0.001421376741852  0.630640121916680  0.630640121916680  0.452311920313658
  0.001423996475491  0.671688333202261  0.671688333202261  0.312521305001653
  0.001431554042179  0.697979268533688  0.697979268533688  0.160155803498829
  0.000925440149987  0.144686567419531  0.000000000000000  0.989477537495599
  0.001250239995054  0.339026347541122  0.000000000000000  0.940776878793759
  0.001394365843329  0.533580465126351  0.000000000000000  0.845749305193653
  0.001127089094672  0.069440243933494  0.235518789424233  0.969385863498432
  0.001345753760911  0.226900410952946  0.410218247404573  0.883310360522113
  0.001424957283317  0.080255746077753  0.621430241748161  0.779348105702661
  0.001261523341238  0.146799952789657  0.324528434571739  0.934414827052402
  0.001392547106053  0.157150776982473  0.522448218969663  0.838064133458312
  0.001418761677878  0.236570299315725  0.601754663408956  0.762840624604670
  0.001338366684480  0.077148158667657  0.434657551614116  0.897285336132833
  0.001393700862676  0.306293666621073  0.490882658903762  0.815609223203975
  0.001415914757467  0.382247737952479  0.564876814909950  0.731300793659766
   total no. of   reducible points: 770; test:  1.00000000
  0.000143829419053  1.000000000000000  0.000000000000000  0.000000000000000
  0.001125772288287  0.577350269189626  0.577350269189626  0.577350269189626
  0.000494802934195  0.042929635453413  0.042929635453413  0.998155345023847
  0.000735799010913  0.105142685408640  0.105142685408640  0.988883224354686
  0.000888913277130  0.175002486762309  0.175002486762309  0.968890220434707
  0.000988834783892  0.247765337965026  0.247765337965026  0.936602730407163
  0.001053299681709  0.320656712395596  0.320656712395596  0.891267942647606
  0.001092778807015  0.391652074984998  0.391652074984998  0.832596723702352
  0.001114389394063  0.459082587418762  0.459082587418762  0.760582905315251
  0.001123724788052  0.521456388841586  0.521456388841586  0.675400969108414
  0.001125239325244  0.625317024465420  0.625317024465420  0.466858905695743
  0.001126153271816  0.663792674452317  0.663792674452317  0.344613654237438
  0.001130286931124  0.691041039849830  0.691041039849830  0.211954151850184
  0.001134986534364  0.705290700745776  0.705290700745776  0.071624401449956
  0.000682336792711  0.123668676265799  0.000000000000000  0.992323565431490
  0.000945415816045  0.294077711446839  0.000000000000000  0.955781512496548
  0.001074429975386  0.469775384920765  0.000000000000000  0.882785980701182
  0.001129300086569  0.633456324113957  0.000000000000000  0.773778447257375
  0.000843688450090  0.059740486141813  0.202912875277752  0.977372722845310
  0.001075255720449  0.137576040847364  0.460262194248405  0.877058461865803
  0.001108577236864  0.339101652633629  0.503067399966204  0.794942299964208
  0.000956647532378  0.127167519143982  0.281760642244213  0.951020169374390
  0.001080663250717  0.269312074041351  0.433156129172016  0.860143461601762
  0.001126797131196  0.141978645260192  0.625616735858081  0.767102186220558
  0.001022568715358  0.067092846007383  0.379839521685916  0.922616110730809
  0.001108960267713  0.070577381832562  0.551750542142352  0.831017552413474
  0.001122790653436  0.278388847788215  0.602961915615919  0.747620610834086
  0.001032401847117  0.197957893891741  0.358960632958910  0.912118378409121
  0.001107249382284  0.208730706110327  0.534866643813548  0.818748536281022
  0.001121780048520  0.405512213787284  0.567499754607437  0.716591845467024
   total no. of   reducible points: 974; test:  1.00000000
  0.000110518923327  1.000000000000000  0.000000000000000  0.000000000000000
  0.000920523273809  0.707106781186547  0.707106781186547  0.000000000000000
  0.000913315978644  0.577350269189626  0.577350269189626  0.577350269189626
  0.000369042189802  0.037126364496571  0.037126364496571  0.998620681799919
  0.000560399092868  0.091400604122622  0.091400604122622  0.991610739722014
  0.000686529762928  0.153107785246991  0.153107785246991  0.976276606394685
  0.000772033855115  0.218092889166061  0.218092889166061  0.951247067480579
  0.000830154595889  0.283987453220018  0.283987453220018  0.915806886208668
  0.000868669255018  0.349117760096376  0.349117760096376  0.869616915181954
  0.000892707628585  0.412143146144431  0.412143146144431  0.812573722299916
  0.000906082023857  0.471899362714913  0.471899362714913  0.744729469632107
  0.000911977725494  0.527314545284234  0.527314545284234  0.666242253736104
  0.000912872013860  0.620947533244402  0.620947533244402  0.478380938076952
  0.000913071493569  0.656972271185729  0.656972271185729  0.369830866459426
  0.000915287378455  0.684178830907014  0.684178830907014  0.252583955700718
  0.000918743627432  0.701260433012363  0.701260433012363  0.128326186659723
  0.000517697731297  0.107238221547817  0.000000000000000  0.994233354821322
  0.000733114368210  0.258206895949697  0.000000000000000  0.966089643296119
  0.000846323283638  0.417275295530672  0.000000000000000  0.908780131681911
  0.000903112269425  0.570036691179250  0.000000000000000  0.821619237061433
  0.000648577845316  0.982798601826395  0.177177402261533  0.052106394770113
  0.000743503091098  0.962424923032623  0.247571646342629  0.111564095715648
  0.000799852789184  0.940200799412881  0.335461628906649  0.059058888532354
  0.000810173149747  0.932082204014320  0.317361524661198  0.174655167757863
  0.000848338957459  0.904367419939330  0.409026842708536  0.121723505109599
  0.000855629925731  0.891240756007475  0.385429115066922  0.239027847938172
  0.000880320867974  0.867643562846271  0.493222118485128  0.062662506241542
  0.000881104818243  0.858197998604162  0.478532067592243  0.185750519454734
  0.000885028234127  0.839675362404986  0.450742259315706  0.302946697352898
  0.000902134229904  0.816528856402219  0.563212302076210  0.126777480068428
  0.000901009167711  0.801546937078353  0.543430356969390  0.249411216236224
  0.000902269293843  0.777356306907035  0.512351848641987  0.364983226059765
  0.000915801617469  0.766162121390039  0.639427963474910  0.064245492242208
  0.000913157800319  0.755358414353351  0.626980550902439  0.190601822277923
  0.000910781357948  0.734430575755950  0.603116169309631  0.311227594714961
  0.000910576025897  0.704383718402177  0.569370249846844  0.423864478152234
   total no. of   reducible points:1202; test:  1.00000000
  0.000077771607433  1.000000000000000  0.000000000000000  0.000000000000000
  0.000755764641300  0.577350269189626  0.577350269189626  0.577350269189626
  0.000284163380609  0.032292906634139  0.032292906634139  0.998956623864238
  0.000437441912705  0.080367332714622  0.080367332714622  0.993520097262594
  0.000541717474087  0.135428996053165  0.135428996053165  0.981487633165117
  0.000614800089136  0.193896386111443  0.193896386111443  0.961669580940275
  0.000666439448580  0.253734371501127  0.253734371501127  0.933401166400522
  0.000702503935692  0.313525143475257  0.313525143475257  0.896328047546008
  0.000726851178925  0.372155833937534  0.372155833937534  0.850294108254619
  0.000742263753421  0.428680957519570  0.428680957519570  0.795276853253136
  0.000750954503584  0.482251012828299  0.482251012828299  0.731346649169981
  0.000754853505772  0.532067933356626  0.532067933356626  0.658640591360127
  0.000755408896977  0.617299819539427  0.617299819539427  0.487731345715221
  0.000755314717444  0.651067984912748  0.651067984912748  0.390155043595885
  0.000756476765329  0.677731525168736  0.677731525168736  0.285236672931301
  0.000758799180852  0.696310941064874  0.696310941064874  0.174075117999957
  0.000760826183203  0.705893500983175  0.705893500983175  0.058555363028785
  0.000402168044787  0.995554619409186  0.000000000000000  0.094185985013862
  0.000580487179395  0.973411590179421  0.000000000000000  0.229063039585986
  0.000679215195595  0.927569373238863  0.000000000000000  0.373650983980055
  0.000733674121129  0.856802242279510  0.000000000000000  0.515645147000147
  0.000758186630099  0.762349555371937  0.000000000000000  0.647165477620840
  0.000753825785980  0.570752290889222  0.438702803988950  0.694104943230444
  0.000748351724705  0.519646338840308  0.385890841476262  0.762270254565011
  0.000737176366111  0.464633753121535  0.330193737234385  0.821637128756598
  0.000718344889576  0.406390169755769  0.272542357356378  0.872105322408083
  0.000689581552982  0.345632946664309  0.213951023749525  0.913653558859526
  0.000648010580179  0.283139512105033  0.155592230978665  0.946373644151191
  0.000589755889659  0.219768202292533  0.098928789796861  0.970523071240677
  0.000509570884925  0.156469609865035  0.045986429106755  0.986611630545015
  0.000753690642891  0.602735667372129  0.337662514017343  0.722975616397235
  0.000747250596558  0.549603232025510  0.282230130972799  0.786309379645309
  0.000734301713228  0.492170775523457  0.224863234259254  0.840954489612314
  0.000713087158218  0.430942299859848  0.166622472345648  0.886862833757808
  0.000681702203211  0.366410818231367  0.108696490182217  0.924082347686118
  0.000638094114560  0.299018905775844  0.052519897841201  0.952800794667682
  0.000755038137792  0.626872401314500  0.229752365755002  0.744476220506856
  0.000747864664014  0.570732414483461  0.172308060709380  0.802853936449496
  0.000733591872060  0.509636090196037  0.114023846539051  0.852801042441985
  0.000711012052766  0.443872993831246  0.056115220958825  0.894330949550573
  0.000757136397869  0.641997847108239  0.116417442314087  0.757816431224233
  0.000748990832908  0.581721806180261  0.057975895314452  0.811319009870262
   total no. of   reducible points:1454; test:  1.00000000
  qrot: 

              1        2        3      
    1    1.0000   0.0000   0.0000
    2    0.0000   1.0000   0.0000
    3    0.0000   0.0000   1.0000
  me                     0   done genpts
  me                     4   done genpts
  me                     5   done genpts
  me                     6   done genpts
  me                     7   done genpts
  me                     1   done genpts
  me                     2   done genpts
  me                     3   done genpts
  me                     0   done uprt
  me                     1   done uprt
  me                     2   done uprt
  me                     3   done uprt
  me                     4   done uprt
  me                     5   done uprt
  me                     6   done uprt
  me                     7   done uprt
  me                     0  done mem
  me                     1  done mem
  me                     2  done mem
  me                     3  done mem
  me                     4  done mem
  me                     5  done mem
  me                     6  done mem
  me                     7  done mem
  dftinpanae: itol2e                     8  iaoacc                    14  tol_rho    1.0000000000000000E-010

            General Information
            -------------------
          SCF calculation type: DFT
          Wavefunction type:  spin polarized.
          No. of atoms     :     1
          No. of electrons :     5
           Alpha electrons :     3
            Beta electrons :     2
          Charge           :     0
          Spin multiplicity:     2
          Use of symmetry is: off; symmetry adaption is: off
          Maximum number of iterations:  50
          AO basis - number of functions:    55
                     number of shells:    14
          Convergence on energy requested:  1.00D-06
          Convergence on density requested:  1.00D-05
          Convergence on gradient requested:  5.00D-04

              XC Information
              --------------
                     Hartree-Fock (Exact) Exchange  1.000          
                     LC-wPBE(h)Exchange Functional  1.000          
            Perdew 1991 LDA Correlation Functional  1.000 local    
           PerdewBurkeErnz. Correlation Functional  1.000 non-local

           Range-Separation Parameters        
           ---------------------------
           Alpha           :  0.00
           Beta            :  1.00
           Gamma           :  0.40
           Short-Range HF  :     F

             Grid Information
             ----------------
          Grid used for XC integration:  xfine     
          Radial quadrature: Mura-Knowles        
          Angular quadrature: Lebedev. 
          Tag              B.-S. Rad. Rad. Pts. Rad. Cut. Ang. Pts.
          ---              ---------- --------- --------- ---------
          B                   0.85      100          13.0      1454
          Grid pruning is: on 
          Number of quadrature shells:   100
          Spatial weights used:  Erf1

          Convergence Information
          -----------------------
          Convergence aids based upon iterative change in 
          total energy or number of iterations. 
          Levelshifting, if invoked, occurs when the 
          HOMO/LUMO gap drops below (HL_TOL):  1.00D-02
          DIIS, if invoked, will attempt to extrapolate 
          using up to (NFOCK): 10 stored Fock matrices.

                    Damping( 0%)  Levelshifting(0.5)       DIIS
                  --------------- ------------------- ---------------
          dE  on:    start            ASAP                start   
          dE off:    2 iters         50 iters            50 iters 


      Screening Tolerance Information
      -------------------------------
          Density screening/tol_rho:  1.00D-10
          AO Gaussian exp screening on grid/accAOfunc:  14
          CD Gaussian exp screening on grid/accCDfunc:  20
          XC Gaussian exp screening on grid/accXCfunc:  20
          Schwarz screening/accCoul:  1.00D-08



                         Geometry "geometry" -> "geometry"
                         ---------------------------------

 Output coordinates in angstroms (scale by  1.889725989 to convert to a.u.)

  No.       Tag          Charge          X              Y              Z
 ---- ---------------- ---------- -------------- -------------- --------------
    1 B                    5.0000     0.00000000     0.00000000     0.00000000

      Atomic Mass 
      ----------- 

      B                 11.009310


 Effective nuclear repulsion energy (a.u.)       0.0000000000

            Nuclear Dipole moment (a.u.) 
            ----------------------------
        X                 Y               Z
 ---------------- ---------------- ----------------
     0.0000000000     0.0000000000     0.0000000000

  
  CAM type calculations without CDFIT are
  only available with the direct option.
  Forcing Direct SCF
  


     <<<<<<    Before call to DFT_SCF.    >>>>>>
     <<<<<< date:  Apr 24  time: 11:08:50 >>>>>>


 Setting tolerance for linear dependence to 1.00D-05


 Setting tolerance for linear dependence to 1.00D-05

 Setting tolerance for linear dependence to 1.00D-05

 Setting tolerance for linear dependence to 1.00D-05

 Setting tolerance for linear dependence to 1.00D-05

 Setting tolerance for linear dependence to 1.00D-05

 Setting tolerance for linear dependence to 1.00D-05
 Setting tolerance for linear dependence to 1.00D-05
  lindep tolerance =    1.0000000000000001E-005
  lindep tolerance =    1.0000000000000001E-005
  lindep tolerance =    1.0000000000000001E-005
  lindep tolerance =    1.0000000000000001E-005
  lindep tolerance =    1.0000000000000001E-005
  lindep tolerance =    1.0000000000000001E-005
  lindep tolerance =    1.0000000000000001E-005
  lindep tolerance =    1.0000000000000001E-005


     <<<<<<    Before 3c-2e initialize.   >>>>>>
     <<<<<< date:  Apr 24  time: 11:08:50 >>>>>>


 Setting fock-build task_bf   :      -1
                    maxquartet:   10000
                    maxeri    :  129600
                    maxscr    :       0
                    intacc    : 0.0D+00
                    denscreen : T
                    dentol    : 1.0D-06


      Superposition of Atomic Density Guess
      -------------------------------------

 Sum of atomic energies:         -24.53449978

      Non-variational initial energy
      ------------------------------

 Total energy =     -24.358763
 1-e energy   =     -32.376193
 2-e energy   =       8.017430
 HOMO         =      -0.001403
 LUMO         =      -0.001403


 Setting fock-build task_bf   :      -1
                    maxquartet:   10000
                    maxeri    :  129600
                    maxscr    :       0
                    intacc    : 0.0D+00
                    denscreen : T
                    dentol    : 1.0D-06


 Wrote molecular orbitals to ./b.movecs

  WARNING: movecs_in_org=atomic not equal to movecs_in=./b.movecs
   Time after variat. SCF:      0.2

 Setting fock-build task_bf   :      -1
                    maxquartet:   10000
                    maxeri    :  129600
                    maxscr    :       0
                    intacc    : 0.0D+00
                    denscreen : T
                    dentol    : 1.0D-06

   Time prior to 1st pass:      0.2


     <<<<<<      Before SCF iter loop.    >>>>>>
     <<<<<< date:  Apr 24  time: 11:08:50 >>>>>>

           DAMPING=T LEVELSHIFTING=F DIISING=T
          itol2e= 8 iAOacc=12 iXCacc=20


     <<<<<<            calling 1-e int    >>>>>>
     <<<<<< date:  Apr 24  time: 11:08:50 >>>>>>

    Kinetic Matrix Time:          0.0s

           Kinetic energy =     24.133789222759

    Potential Matrix Time:          0.0s


     <<<<<<    Before call to GETVXC.     >>>>>>
     <<<<<< date:  Apr 24  time: 11:08:50 >>>>>>



     <<<<<<    Before call to fock_2e.    >>>>>>
     <<<<<< date:  Apr 24  time: 11:08:50 >>>>>>



     <<<<<<     After call to fock_2e.    >>>>>>
     <<<<<< date:  Apr 24  time: 11:08:50 >>>>>>

    Fock_2e Build Time:          0.1s
  *** grid_quadv0:                    calc_type:                    1
  *** grid_quadv0:                    grid_written: F
  *** grid_quadv0:                    grad: T
  *** grid_quadv0:                    kske: F
  *** grid_quadv0:                    kslap: F
  *** grid_quadv0:                    do_scf: T
  *** grid_quadv0:                    fde_option:                    0
  *** grid_quadv0:                    calc_type:                    1
  *** grid_quadv0:                    grid_written: F
  *** grid_quadv0:                    grad: T
  *** grid_quadv0:                    kske: F
  *** grid_quadv0:                    n_per_rec:                 3070
  *** grid_quadv0:                    kslap: F
  *** grid_quadv0:                    do_scf: T
  *** grid_quadv0:                    fde_option:                    0
  *** grid_quadv0:                    n_per_rec:                 3070
  *** grid_quadv0:                    calc_type:                    1
  *** grid_quadv0:                    grid_written: F
  *** grid_quadv0:                    grad: T
  *** grid_quadv0:                    kske: F
  *** grid_quadv0:                    kslap: F
  *** grid_quadv0:                    calc_type:                    1
  *** grid_quadv0:                    grid_written: F
  *** grid_quadv0:                    grad: T
  *** grid_quadv0:                    kske: F
  *** grid_quadv0:                    kslap: F
  *** grid_quadv0:                    do_scf: T
  *** grid_quadv0:                    fde_option:                    0
  *** grid_quadv0:                    n_per_rec:                 3070
  *** grid_quadv0:                    calc_type:                    1
  *** grid_quadv0:                    grid_written: F
  *** grid_quadv0:                    grad: T
  *** grid_quadv0:                    kske: F
  *** grid_quadv0:                    kslap: F
  *** grid_quadv0:                    do_scf: T
  *** grid_quadv0:                    fde_option:                    0
  *** grid_quadv0:                    n_per_rec:                 3070
  *** grid_quadv0:                    calc_type:                    1
  *** grid_quadv0:                    grid_written: F
  *** grid_quadv0:                    grad: T
  *** grid_quadv0:                    kske: F
  *** grid_quadv0:                    kslap: F
  *** grid_quadv0:                    do_scf: T
  *** grid_quadv0:                    fde_option:                    0
  *** grid_quadv0:                    n_per_rec:                 3070
  *** grid_quadv0:                    calc_type:                    1
  *** grid_quadv0:                    grid_written: F
  *** grid_quadv0:                    grad: T
  *** grid_quadv0:                    kske: F
  *** grid_quadv0:                    kslap: F
  *** grid_quadv0:                    do_scf: T
  *** grid_quadv0:                    fde_option:                    0
  *** grid_quadv0:                    n_per_rec:                 3070
  *** grid_quadv0:                    calc_type:                    1
  *** grid_quadv0:                    grid_written: F
  *** grid_quadv0:                    grad: T
  *** grid_quadv0:                    kske: F
  *** grid_quadv0:                    kslap: F
  *** grid_quadv0:                    do_scf: T
  *** grid_quadv0:                    fde_option:                    0
  *** grid_quadv0:                    n_per_rec:                 3070
  *** grid_quadv0:                    do_scf: T
  *** grid_quadv0:                    fde_option:                    0
  *** grid_quadv0:                    n_per_rec:                 3070
   0: nuse=   8 avail= 12500000Mb on .
   1: nuse=   8 avail= 12500000Mb on .
   4: nuse=   8 avail= 12500000Mb on .
   5: nuse=   8 avail= 12500000Mb on .
   6: nuse=   8 avail= 12500000Mb on .
   7: nuse=   8 avail= 12500000Mb on .
 l_cube input   11.00

  atom type   l_cube   no. cubes   segmts   rad   sub
 ----------- -------- ----------- -------- ----- -----
   2: nuse=   8 avail= 12500000Mb on .
   3: nuse=   8 avail= 12500000Mb on .
        1      9.60       124         5      24     8

 Grid_pts file          = ./b.gridpts.0
 Record size in doubles =  12289        No. of grid_pts per rec  =   3070
 Max. records in memory =      8        Max. recs in file   = 126656358

 me   0 NQTOTC NQ/cube   15973     275
 me   1 NQTOTC NQ/cube    7969     498
 me   2 NQTOTC NQ/cube    7422     494
 me   3 NQTOTC NQ/cube    7471    1494
 me   4 NQTOTC NQ/cube    8642    1234
 me   5 NQTOTC NQ/cube    8652    1730
 me   6 NQTOTC NQ/cube    8200    1025
 me   7 NQTOTC NQ/cube    7379     737

 XC quadr. integrated density :       5.000000 npts:    71306 nctrs:        1

    Fock_xc Build Time:          0.1s


     <<<<<<    Before call to GETVCOUL.   >>>>>>
     <<<<<< date:  Apr 24  time: 11:08:50 >>>>>>



     <<<<<<    End of parallel region.    >>>>>>
     <<<<<< date:  Apr 24  time: 11:08:50 >>>>>>

    Total Fock Matrix Build Time:          0.2s
 Etnew, Ecore, Ecoul, Exc(1), Exc(2), Totsic:   -24.565165794649303       -31.734629671998025        10.880155221249257       -3.7106913439005362        0.0000000000000000        0.0000000000000000     
  delta =   -24.565165794649303     
  delta =   -24.565165794649303     


         Total DFT energy =      -24.565165794649
      One electron energy =      -31.734629671998
           Coulomb energy =       10.880155221249
    Exchange-Corr. energy =       -3.710691343901
 Nuclear repulsion energy =        0.000000000000

  delta =   -24.565165794649303     
  delta =   -24.565165794649303     
  delta =   -24.565165794649303     
  delta =   -24.565165794649303     
  delta =   -24.565165794649303     
  delta =   -24.565165794649303     
 Numeric. integr. density =        4.999999989169

     Total iterative time =      1.1s




     <<<<<<        calling diis driver    >>>>>>
     <<<<<< date:  Apr 24  time: 11:08:50 >>>>>>

 nhist                     1  pulay matrix 
   0.0000E+00
  -1.0000E+00   5.6752E-02


     <<<<<<         called diis driver    >>>>>>
     <<<<<< date:  Apr 24  time: 11:08:50 >>>>>>


 global array: fock transf[1:55,1:55],  handle: -940 

            1           2           3           4           5           6  
       ----------- ----------- ----------- ----------- ----------- -----------
   1       2.77183    -0.00000     0.00000     0.00000    -2.12594     0.35955
   2      -0.00000     3.37017     0.00029    -0.00046    -0.00000     0.00000
   3       0.00000     0.00029     3.37110    -0.00152     0.00000    -0.00000
   4       0.00000    -0.00046    -0.00152     3.37218    -0.00000     0.00000
   5      -2.12594    -0.00000     0.00000    -0.00000     3.51723    -0.78390
   6       0.35955     0.00000    -0.00000     0.00000    -0.78390     0.49266
   7       0.00000     0.31410     0.38857     0.58660     0.00000     0.00000
   8      -0.00000     0.67850     0.00302    -0.36514     0.00000     0.00000
   9       0.00000    -0.18659     0.66533    -0.34053    -0.00000     0.00000
  10       0.00000     0.00018     0.00024    -0.00027    -0.00000     0.00000
  11      -0.00000     0.00006    -0.00023     0.00024    -0.00000     0.00000
  12       0.00000    -0.00011     0.00015     0.00004    -0.00000    -0.00000
  13       0.00000    -0.00003    -0.00010     0.00020    -0.00000     0.00000
  14       0.27362     0.00000    -0.00000    -0.00000    -0.23607     0.61742
  15       0.00000    -0.00506     0.04476    -0.01835     0.00000    -0.00000
  16       0.00000    -0.03147     0.01102     0.03546     0.00000    -0.00000
  17       0.00000    -0.03671    -0.01544    -0.02826     0.00000     0.00000
  18       0.00051     0.00000     0.00000     0.00000    -0.00027     0.00084
  19       0.00033    -0.00000    -0.00000    -0.00000    -0.00017     0.00055
  20      -0.00005    -0.00000    -0.00000    -0.00000     0.00002    -0.00008
  21       0.00000     0.00091     0.00056    -0.00029    -0.00000    -0.00000
  22       0.00022    -0.00000    -0.00000    -0.00000    -0.00012     0.00037
  23      -0.00023     0.00000     0.00000    -0.00000     0.00012    -0.00038
  24       0.00000    -0.00089     0.00113     0.00033    -0.00000     0.00000
  25       0.00000    -0.00011     0.00029     0.00068    -0.00000     0.00000
  26       0.00000    -0.00074     0.00054    -0.00049    -0.00000    -0.00000
  27       0.00022     0.00000     0.00000     0.00000    -0.00059    -0.00034
  28      -0.00023    -0.00000    -0.00000    -0.00000     0.00062     0.00036
  29      -0.00033    -0.00000    -0.00000     0.00000     0.00088     0.00051
  30       0.00000    -0.00991     0.00012    -0.06208    -0.00000    -0.00000
  31      -0.00000    -0.00046     0.06400    -0.00060     0.00000     0.00000
  32      -0.00000    -0.06342    -0.00063     0.01096    -0.00000    -0.00000
  33       0.00000    -0.23270    -0.07154    -0.04292    -0.00000    -0.00000
  34       0.00000    -0.02461    -0.05800     0.23763     0.00000     0.00000
  35      -0.00000    -0.07943     0.22880     0.04902    -0.00000     0.00000
  36       0.07736     0.00000    -0.00000    -0.00000    -0.25662     0.23934
  37       0.00024    -0.00000    -0.00000     0.00000    -0.00064    -0.00037
  38      -0.00005    -0.00000     0.00000    -0.00000     0.00014     0.00008
  39       0.00002    -0.00000    -0.00000    -0.00000     0.00010    -0.00056
  40      -0.00003     0.00000     0.00000    -0.00000    -0.00012     0.00065
  41       0.00001    -0.00000    -0.00000    -0.00000     0.00004    -0.00021
  42       0.00000     0.06423    -0.00084     0.00604     0.00000     0.00000
  43      -0.00000     0.00032     0.06401     0.00455    -0.00000     0.00000
  44      -0.00000     0.00543     0.00289    -0.06333    -0.00000    -0.00000
  45      -0.00001    -0.00000    -0.00000    -0.00000    -0.00002     0.00013
  46       0.00002     0.00000     0.00000    -0.00000     0.00008    -0.00045
  47       0.04126     0.00000    -0.00000     0.00000    -0.22100     0.08545
  48       0.00000     0.03651     0.05308     0.03945     0.00000    -0.00000
  49      -0.00000     0.04162    -0.05415     0.03412    -0.00000    -0.00000
  50       0.00000    -0.05147    -0.00660     0.05626    -0.00000    -0.00000
  51       0.11066     0.00000    -0.00000    -0.00000    -0.20711     0.08334
  52       0.00000    -0.00104    -0.03855    -0.02771     0.00000    -0.00000
  53       0.00000     0.04750     0.00009    -0.00181     0.00000     0.00000
  54      -0.00000     0.00038     0.03104    -0.04383    -0.00000    -0.00000
  55      -0.06256    -0.00000     0.00000     0.00000     0.08826    -0.04894

            7           8           9          10          11          12  
       ----------- ----------- ----------- ----------- ----------- -----------
   1       0.00000    -0.00000     0.00000     0.00000    -0.00000     0.00000
   2       0.31410     0.67850    -0.18659     0.00018     0.00006    -0.00011
   3       0.38857     0.00302     0.66533     0.00024    -0.00023     0.00015
   4       0.58660    -0.36514    -0.34053    -0.00027     0.00024     0.00004
   5       0.00000     0.00000    -0.00000    -0.00000    -0.00000    -0.00000
   6       0.00000     0.00000     0.00000     0.00000     0.00000    -0.00000
   7       0.91409    -0.00051    -0.00077    -0.00001     0.00004     0.00001
   8      -0.00051     0.91497     0.00165     0.00066    -0.00020    -0.00017
   9      -0.00077     0.00165     0.91634     0.00064    -0.00061     0.00022
  10      -0.00001     0.00066     0.00064     1.56649    -0.00029    -0.00011
  11       0.00004    -0.00020    -0.00061    -0.00029     1.56641    -0.00108
  12       0.00001    -0.00017     0.00022    -0.00011    -0.00108     1.56699
  13       0.00006    -0.00028    -0.00032    -0.00032     0.00106     0.00035
  14       0.00000     0.00000    -0.00000     0.00000    -0.00000    -0.00000
  15      -0.03300    -0.02254    -0.24018    -0.00157     0.00100    -0.00024
  16      -0.09793     0.22273    -0.00729     0.00153     0.00019    -0.00014
  17       0.22010     0.09608    -0.03868     0.00083    -0.00070    -0.00058
  18      -0.00000    -0.00000     0.00000    -0.00000     0.00000    -0.00000
  19       0.00000     0.00000    -0.00000     0.00000    -0.00000     0.00000
  20       0.00000     0.00000    -0.00000     0.00000     0.00000    -0.00000
  21       0.00032     0.00059     0.00016     0.64219     0.00008    -0.00005
  22       0.00000    -0.00000    -0.00000     0.00000    -0.00000    -0.00000
  23      -0.00000    -0.00000     0.00000    -0.00000    -0.00000     0.00000
  24       0.00024    -0.00055     0.00052    -0.00006    -0.03591     0.61367
  25       0.00030    -0.00024     0.00010     0.00000     0.02569     0.18980
  26      -0.00011    -0.00034     0.00041    -0.00008    -0.64065    -0.02530
  27      -0.00000    -0.00000     0.00000    -0.00000    -0.00000    -0.00000
  28       0.00000     0.00000    -0.00000    -0.00000    -0.00000     0.00000
  29       0.00000    -0.00000     0.00000    -0.00000     0.00000    -0.00000
  30      -0.22619     0.08880     0.12992     0.00079    -0.00041     0.00003
  31       0.13688    -0.00037     0.23973     0.00099    -0.00092     0.00046
  32      -0.07713    -0.26167     0.04358    -0.00128    -0.00026     0.00060
  33      -0.29073    -0.32969     0.02342    -0.00044    -0.00077     0.00009
  34       0.25220    -0.24137    -0.26808    -0.00071     0.00144     0.00040
  35       0.21370    -0.16364     0.34833     0.00026    -0.00053     0.00147
  36      -0.00000    -0.00000    -0.00000     0.00000    -0.00000     0.00000
  37       0.00000     0.00000    -0.00000     0.00000     0.00000    -0.00000
  38      -0.00000    -0.00000     0.00000    -0.00000     0.00000    -0.00000
  39       0.00000     0.00000    -0.00000     0.00000     0.00000     0.00000
  40      -0.00000     0.00000    -0.00000    -0.00000    -0.00000     0.00000
  41      -0.00000     0.00000    -0.00000     0.00000    -0.00000     0.00000
  42       0.02650     0.04718    -0.01646     0.00012     0.00028    -0.00020
  43       0.03122    -0.00111     0.04706     0.00000    -0.00002     0.00041
  44      -0.03911     0.03095     0.02620    -0.00011    -0.00014    -0.00023
  45       0.00000    -0.00000     0.00000    -0.00000     0.00000    -0.00000
  46      -0.00000    -0.00000     0.00000    -0.00000    -0.00000     0.00000
  47       0.00000     0.00000     0.00000     0.00000     0.00000     0.00000
  48       0.10310     0.01961     0.02808     0.00010     0.00010     0.00018
  49       0.02231     0.02933    -0.10309    -0.00056     0.00074    -0.00023
  50       0.02644    -0.10334    -0.02566    -0.00070     0.00059     0.00012
  51      -0.00000    -0.00000    -0.00000     0.00000    -0.00000     0.00000
  52      -0.02373     0.00696    -0.01232    -0.00026     0.00008    -0.00119
  53       0.01066     0.02473    -0.00670     0.00086     0.00066    -0.00078
  54      -0.00890     0.01021     0.02347     0.00097    -0.00123     0.00024
  55       0.00000     0.00000     0.00000     0.00000    -0.00000    -0.00000

           13          14          15          16          17          18  
       ----------- ----------- ----------- ----------- ----------- -----------
   1       0.00000     0.27362     0.00000     0.00000     0.00000     0.00051
   2      -0.00003     0.00000    -0.00506    -0.03147    -0.03671     0.00000
   3      -0.00010    -0.00000     0.04476     0.01102    -0.01544     0.00000
   4       0.00020    -0.00000    -0.01835     0.03546    -0.02826     0.00000
   5      -0.00000    -0.23607     0.00000     0.00000     0.00000    -0.00027
   6       0.00000     0.61742    -0.00000    -0.00000     0.00000     0.00084
   7       0.00006     0.00000    -0.03300    -0.09793     0.22010    -0.00000
   8      -0.00028     0.00000    -0.02254     0.22273     0.09608    -0.00000
   9      -0.00032    -0.00000    -0.24018    -0.00729    -0.03868     0.00000
  10      -0.00032     0.00000    -0.00157     0.00153     0.00083    -0.00000
  11       0.00106    -0.00000     0.00100     0.00019    -0.00070     0.00000
  12       0.00035    -0.00000    -0.00024    -0.00014    -0.00058    -0.00000
  13       1.56541     0.00000     0.00037    -0.00041    -0.00067    -0.00000
  14       0.00000     3.44489    -0.00000     0.00000    -0.00000     0.00173
  15       0.00037    -0.00000     1.48487    -0.00086    -0.00023     0.00000
  16      -0.00041     0.00000    -0.00086     1.48460    -0.00003    -0.00000
  17      -0.00067    -0.00000    -0.00023    -0.00003     1.48447    -0.00000
  18      -0.00000     0.00173     0.00000    -0.00000    -0.00000     1.21269
  19      -0.00000     0.00112    -0.00000    -0.00000     0.00000     0.00081
  20      -0.00000    -0.00016    -0.00000     0.00000     0.00000    -0.00020
  21       0.00002     0.00000    -0.00096     0.00100     0.00042     0.00000
  22       0.00000     0.00076     0.00000    -0.00000     0.00000     0.00065
  23      -0.00000    -0.00079     0.00000    -0.00000     0.00000    -0.00064
  24      -0.18741     0.00000    -0.00009     0.00008    -0.00026     0.00000
  25       0.61276     0.00000     0.00011    -0.00033    -0.00042     0.00000
  26       0.03364     0.00000    -0.00058    -0.00021     0.00031    -0.00000
  27      -0.00000     0.00141    -0.00000    -0.00000    -0.00000     0.49809
  28      -0.00000    -0.00147     0.00000    -0.00000    -0.00000    -0.42921
  29       0.00000    -0.00208    -0.00000    -0.00000     0.00000    -0.14904
  30      -0.00044    -0.00000    -0.19661     0.31335    -0.35507     0.00000
  31      -0.00014    -0.00000    -0.47396    -0.11615     0.15822    -0.00000
  32       0.00039     0.00000    -0.01532    -0.38920    -0.33364     0.00000
  33      -0.00046    -0.00000    -0.04121     0.16517     0.35647    -0.00000
  34       0.00107    -0.00000    -0.22568     0.28190    -0.16006     0.00000
  35      -0.00014     0.00000     0.32023     0.22140    -0.06587     0.00000
  36      -0.00000     0.04408    -0.00000     0.00000    -0.00000     0.00021
  37       0.00000     0.00151    -0.00000     0.00000    -0.00000    -0.00002
  38       0.00000    -0.00034     0.00000    -0.00000     0.00000     0.00005
  39       0.00000    -0.00145    -0.00000     0.00000     0.00000    -0.14282
  40       0.00000     0.00169     0.00000     0.00000    -0.00000     0.05521
  41      -0.00000    -0.00054     0.00000    -0.00000    -0.00000    -0.10639
  42       0.00015    -0.00000    -0.00272    -0.01009    -0.01428     0.00000
  43       0.00003    -0.00000     0.01598     0.00469    -0.00647     0.00000
  44      -0.00012    -0.00000     0.00781    -0.01402     0.00902    -0.00000
  45       0.00000     0.00033     0.00000     0.00000     0.00000    -0.00010
  46      -0.00000    -0.00117     0.00000    -0.00000     0.00000     0.00020
  47      -0.00000    -0.84861     0.00000    -0.00000     0.00000    -0.00020
  48       0.00010    -0.00000     0.03762     0.02147    -0.08413     0.00000
  49       0.00046     0.00000    -0.08206    -0.01898    -0.04244     0.00000
  50       0.00046    -0.00000    -0.02563     0.08976     0.01040    -0.00000
  51      -0.00000    -0.01543     0.00000    -0.00000     0.00000    -0.00066
  52      -0.00031     0.00000    -0.02036    -0.02367     0.02464    -0.00000
  53       0.00009     0.00000    -0.00481    -0.02511    -0.02902     0.00000
  54      -0.00079     0.00000     0.03064    -0.01636     0.01208    -0.00000
  55       0.00000    -0.07775    -0.00000    -0.00000     0.00000    -0.00041

           19          20          21          22          23          24  
       ----------- ----------- ----------- ----------- ----------- -----------
   1       0.00033    -0.00005     0.00000     0.00022    -0.00023     0.00000
   2      -0.00000    -0.00000     0.00091    -0.00000     0.00000    -0.00089
   3      -0.00000    -0.00000     0.00056    -0.00000     0.00000     0.00113
   4      -0.00000    -0.00000    -0.00029    -0.00000    -0.00000     0.00033
   5      -0.00017     0.00002    -0.00000    -0.00012     0.00012    -0.00000
   6       0.00055    -0.00008    -0.00000     0.00037    -0.00038     0.00000
   7       0.00000     0.00000     0.00032     0.00000    -0.00000     0.00024
   8       0.00000     0.00000     0.00059    -0.00000    -0.00000    -0.00055
   9      -0.00000    -0.00000     0.00016    -0.00000     0.00000     0.00052
  10       0.00000     0.00000     0.64219     0.00000    -0.00000    -0.00006
  11      -0.00000     0.00000     0.00008    -0.00000    -0.00000    -0.03591
  12       0.00000    -0.00000    -0.00005    -0.00000     0.00000     0.61367
  13      -0.00000    -0.00000     0.00002     0.00000    -0.00000    -0.18741
  14       0.00112    -0.00016     0.00000     0.00076    -0.00079     0.00000
  15      -0.00000    -0.00000    -0.00096     0.00000     0.00000    -0.00009
  16      -0.00000     0.00000     0.00100    -0.00000    -0.00000     0.00008
  17       0.00000     0.00000     0.00042     0.00000     0.00000    -0.00026
  18       0.00081    -0.00020     0.00000     0.00065    -0.00064     0.00000
  19       1.21184    -0.00008    -0.00000     0.00043    -0.00058    -0.00000
  20      -0.00008     1.21110     0.00000     0.00015     0.00013    -0.00000
  21      -0.00000     0.00000     1.03508    -0.00000    -0.00000    -0.00007
  22       0.00043     0.00015    -0.00000     1.21151    -0.00022     0.00000
  23      -0.00058     0.00013    -0.00000    -0.00022     1.21133    -0.00000
  24      -0.00000    -0.00000    -0.00007     0.00000    -0.00000     1.03515
  25      -0.00000     0.00000    -0.00058    -0.00000     0.00000     0.00003
  26      -0.00000    -0.00000     0.00037    -0.00000     0.00000     0.00044
  27      -0.10595     0.44144     0.00000     0.00037     0.00022     0.00000
  28       0.10640     0.50896    -0.00000     0.00042     0.00004    -0.00000
  29      -0.65727     0.01122    -0.00000    -0.00003     0.00038     0.00000
  30      -0.00000    -0.00000     0.00080    -0.00000    -0.00000     0.00029
  31       0.00000     0.00000     0.00053     0.00000    -0.00000     0.00054
  32      -0.00000    -0.00000    -0.00036    -0.00000     0.00000     0.00032
  33       0.00000     0.00000    -0.00042     0.00000    -0.00000     0.00012
  34      -0.00000     0.00000    -0.00029     0.00000     0.00000     0.00008
  35      -0.00000     0.00000     0.00015    -0.00000    -0.00000     0.00080
  36       0.00014    -0.00002     0.00000     0.00009    -0.00010     0.00000
  37       0.00025     0.00037     0.00000     0.56493    -0.36734     0.00000
  38      -0.00032     0.00045    -0.00000     0.36795     0.56469    -0.00000
  39      -0.01342    -0.11992    -0.00000     0.00047    -0.00002     0.00000
  40       0.15741    -0.08392     0.00000     0.00005     0.00053    -0.00000
  41       0.09945     0.11670    -0.00000    -0.00028     0.00007    -0.00000
  42      -0.00000    -0.00000     0.00019    -0.00000     0.00000    -0.00003
  43      -0.00000    -0.00000     0.00041    -0.00000    -0.00000     0.00021
  44       0.00000    -0.00000     0.00057     0.00000    -0.00000     0.00011
  45       0.00011    -0.00053    -0.00000     0.16412     0.08924    -0.00000
  46       0.00050     0.00008    -0.00000    -0.08917     0.16464    -0.00000
  47      -0.00013     0.00002    -0.00000    -0.00009     0.00009    -0.00000
  48      -0.00000    -0.00000     0.00051    -0.00000    -0.00000     0.00045
  49      -0.00000    -0.00000    -0.00029    -0.00000     0.00000    -0.00099
  50      -0.00000     0.00000    -0.00094    -0.00000     0.00000     0.00049
  51      -0.00043     0.00006     0.00000    -0.00029     0.00030     0.00000
  52       0.00000    -0.00000     0.00035     0.00000     0.00000     0.00125
  53      -0.00000    -0.00000    -0.00082    -0.00000     0.00000     0.00111
  54       0.00000    -0.00000     0.00055     0.00000    -0.00000    -0.00008
  55      -0.00027     0.00004    -0.00000    -0.00018     0.00019    -0.00000

           25          26          27          28          29          30  
       ----------- ----------- ----------- ----------- ----------- -----------
   1       0.00000     0.00000     0.00022    -0.00023    -0.00033     0.00000
   2      -0.00011    -0.00074     0.00000    -0.00000    -0.00000    -0.00991
   3       0.00029     0.00054     0.00000    -0.00000    -0.00000     0.00012
   4       0.00068    -0.00049     0.00000    -0.00000     0.00000    -0.06208
   5      -0.00000    -0.00000    -0.00059     0.00062     0.00088    -0.00000
   6       0.00000    -0.00000    -0.00034     0.00036     0.00051    -0.00000
   7       0.00030    -0.00011    -0.00000     0.00000     0.00000    -0.22619
   8      -0.00024    -0.00034    -0.00000     0.00000    -0.00000     0.08880
   9       0.00010     0.00041     0.00000    -0.00000     0.00000     0.12992
  10       0.00000    -0.00008    -0.00000    -0.00000    -0.00000     0.00079
  11       0.02569    -0.64065    -0.00000    -0.00000     0.00000    -0.00041
  12       0.18980    -0.02530    -0.00000     0.00000    -0.00000     0.00003
  13       0.61276     0.03364    -0.00000    -0.00000     0.00000    -0.00044
  14       0.00000     0.00000     0.00141    -0.00147    -0.00208    -0.00000
  15       0.00011    -0.00058    -0.00000     0.00000    -0.00000    -0.19661
  16      -0.00033    -0.00021    -0.00000    -0.00000    -0.00000     0.31335
  17      -0.00042     0.00031    -0.00000    -0.00000     0.00000    -0.35507
  18       0.00000    -0.00000     0.49809    -0.42921    -0.14904     0.00000
  19      -0.00000    -0.00000    -0.10595     0.10640    -0.65727    -0.00000
  20       0.00000    -0.00000     0.44144     0.50896     0.01122    -0.00000
  21      -0.00058     0.00037     0.00000    -0.00000    -0.00000     0.00080
  22      -0.00000    -0.00000     0.00037     0.00042    -0.00003    -0.00000
  23       0.00000     0.00000     0.00022     0.00004     0.00038    -0.00000
  24       0.00003     0.00044     0.00000    -0.00000     0.00000     0.00029
  25       1.03416     0.00013     0.00000     0.00000    -0.00000     0.00033
  26       0.00013     1.03502     0.00000    -0.00000    -0.00000     0.00004
  27       0.00000     0.00000     0.90869    -0.00040     0.00001     0.00000
  28       0.00000    -0.00000    -0.00040     0.90896     0.00006    -0.00000
  29      -0.00000    -0.00000     0.00001     0.00006     0.90896    -0.00000
  30       0.00033     0.00004     0.00000    -0.00000    -0.00000     1.00884
  31      -0.00067     0.00035    -0.00000     0.00000    -0.00000     0.00007
  32       0.00021    -0.00042     0.00000    -0.00000     0.00000    -0.00040
  33      -0.00035     0.00059     0.00000    -0.00000    -0.00000     0.02476
  34       0.00083    -0.00084    -0.00000     0.00000    -0.00000    -0.07167
  35       0.00040     0.00037     0.00000    -0.00000    -0.00000    -0.01081
  36       0.00000     0.00000    -0.00035     0.00037     0.00052    -0.00000
  37      -0.00000    -0.00000     0.00032     0.00012    -0.00043    -0.00000
  38      -0.00000    -0.00000     0.00030     0.00026     0.00032     0.00000
  39      -0.00000     0.00000    -0.40111    -0.00291     0.09531     0.00000
  40      -0.00000     0.00000    -0.08440    -0.16321    -0.36903    -0.00000
  41       0.00000    -0.00000    -0.03939     0.37749    -0.15663     0.00000
  42       0.00003    -0.00020    -0.00000     0.00000    -0.00000    -0.02365
  43      -0.00003     0.00039    -0.00000     0.00000    -0.00000    -0.00604
  44      -0.00066     0.00070    -0.00000    -0.00000     0.00000     0.08984
  45      -0.00000    -0.00000    -0.00067    -0.00084    -0.00048     0.00000
  46       0.00000     0.00000    -0.00048     0.00078     0.00001     0.00000
  47       0.00000     0.00000    -0.00032     0.00033     0.00047     0.00000
  48       0.00044    -0.00022     0.00000     0.00000    -0.00000     0.02236
  49       0.00024    -0.00106     0.00000     0.00000    -0.00000     0.01778
  50       0.00064    -0.00024     0.00000     0.00000    -0.00000     0.02059
  51       0.00000     0.00000    -0.00103     0.00107     0.00152     0.00000
  52       0.00063     0.00020    -0.00000    -0.00000     0.00000    -0.00358
  53       0.00004     0.00096    -0.00000     0.00000     0.00000    -0.00076
  54      -0.00034     0.00028    -0.00000    -0.00000     0.00000    -0.01229
  55       0.00000    -0.00000    -0.00138     0.00144     0.00204    -0.00000

           31          32          33          34          35          36  
       ----------- ----------- ----------- ----------- ----------- -----------
   1      -0.00000    -0.00000     0.00000     0.00000    -0.00000     0.07736
   2      -0.00046    -0.06342    -0.23270    -0.02461    -0.07943     0.00000
   3       0.06400    -0.00063    -0.07154    -0.05800     0.22880    -0.00000
   4      -0.00060     0.01096    -0.04292     0.23763     0.04902    -0.00000
   5       0.00000    -0.00000    -0.00000     0.00000    -0.00000    -0.25662
   6       0.00000    -0.00000    -0.00000     0.00000     0.00000     0.23934
   7       0.13688    -0.07713    -0.29073     0.25220     0.21370    -0.00000
   8      -0.00037    -0.26167    -0.32969    -0.24137    -0.16364    -0.00000
   9       0.23973     0.04358     0.02342    -0.26808     0.34833    -0.00000
  10       0.00099    -0.00128    -0.00044    -0.00071     0.00026     0.00000
  11      -0.00092    -0.00026    -0.00077     0.00144    -0.00053    -0.00000
  12       0.00046     0.00060     0.00009     0.00040     0.00147     0.00000
  13      -0.00014     0.00039    -0.00046     0.00107    -0.00014    -0.00000
  14      -0.00000     0.00000    -0.00000    -0.00000     0.00000     0.04408
  15      -0.47396    -0.01532    -0.04121    -0.22568     0.32023    -0.00000
  16      -0.11615    -0.38920     0.16517     0.28190     0.22140     0.00000
  17       0.15822    -0.33364     0.35647    -0.16006    -0.06587    -0.00000
  18      -0.00000     0.00000    -0.00000     0.00000     0.00000     0.00021
  19       0.00000    -0.00000     0.00000    -0.00000    -0.00000     0.00014
  20       0.00000    -0.00000     0.00000     0.00000     0.00000    -0.00002
  21       0.00053    -0.00036    -0.00042    -0.00029     0.00015     0.00000
  22       0.00000    -0.00000     0.00000     0.00000    -0.00000     0.00009
  23      -0.00000     0.00000    -0.00000     0.00000    -0.00000    -0.00010
  24       0.00054     0.00032     0.00012     0.00008     0.00080     0.00000
  25      -0.00067     0.00021    -0.00035     0.00083     0.00040     0.00000
  26       0.00035    -0.00042     0.00059    -0.00084     0.00037     0.00000
  27      -0.00000     0.00000     0.00000    -0.00000     0.00000    -0.00035
  28       0.00000    -0.00000    -0.00000     0.00000    -0.00000     0.00037
  29      -0.00000     0.00000    -0.00000    -0.00000    -0.00000     0.00052
  30       0.00007    -0.00040     0.02476    -0.07167    -0.01081    -0.00000
  31       1.00923    -0.00100    -0.02125    -0.01939     0.07144    -0.00000
  32      -0.00100     1.00944     0.06917     0.02057     0.02632     0.00000
  33      -0.02125     0.06917     1.22975    -0.00141    -0.00014     0.00000
  34      -0.01939     0.02057    -0.00141     1.22959     0.00084     0.00000
  35       0.07144     0.02632    -0.00014     0.00084     1.22954    -0.00000
  36      -0.00000     0.00000     0.00000     0.00000    -0.00000     0.23855
  37      -0.00000    -0.00000    -0.00000     0.00000    -0.00000    -0.00038
  38       0.00000    -0.00000    -0.00000    -0.00000     0.00000     0.00009
  39      -0.00000     0.00000    -0.00000     0.00000     0.00000    -0.00062
  40       0.00000    -0.00000     0.00000    -0.00000    -0.00000     0.00073
  41       0.00000     0.00000     0.00000    -0.00000     0.00000    -0.00023
  42      -0.00226    -0.09000    -0.48551    -0.00546    -0.16037    -0.00000
  43       0.09324    -0.00063    -0.15621    -0.09094     0.47700     0.00000
  44       0.00653    -0.02426     0.03600    -0.49940    -0.08816    -0.00000
  45       0.00000    -0.00000    -0.00000     0.00000    -0.00000     0.00014
  46      -0.00000     0.00000    -0.00000    -0.00000     0.00000    -0.00051
  47       0.00000     0.00000    -0.00000    -0.00000     0.00000     1.41942
  48      -0.02466     0.01397    -0.10269     0.03979     0.08208    -0.00000
  49       0.02440     0.01715    -0.05325     0.07742    -0.10344     0.00000
  50       0.00141    -0.02711     0.07361     0.11275     0.03844    -0.00000
  51       0.00000     0.00000    -0.00000    -0.00000     0.00000     0.53925
  52       0.00652     0.00067     0.06755    -0.06933    -0.16365    -0.00000
  53      -0.00071     0.00890    -0.17817    -0.02576    -0.06282     0.00000
  54      -0.00875     0.00301    -0.00603    -0.19259     0.07807     0.00000
  55      -0.00000     0.00000     0.00000     0.00000    -0.00000    -0.13358

           37          38          39          40          41          42  
       ----------- ----------- ----------- ----------- ----------- -----------
   1       0.00024    -0.00005     0.00002    -0.00003     0.00001     0.00000
   2      -0.00000    -0.00000    -0.00000     0.00000    -0.00000     0.06423
   3      -0.00000     0.00000    -0.00000     0.00000    -0.00000    -0.00084
   4       0.00000    -0.00000    -0.00000    -0.00000    -0.00000     0.00604
   5      -0.00064     0.00014     0.00010    -0.00012     0.00004     0.00000
   6      -0.00037     0.00008    -0.00056     0.00065    -0.00021     0.00000
   7       0.00000    -0.00000     0.00000    -0.00000    -0.00000     0.02650
   8       0.00000    -0.00000     0.00000     0.00000     0.00000     0.04718
[...]
  22       0.00000     0.00000    -0.00251    -0.00000     0.00000    -0.00000
  23      -0.00000    -0.00000     0.04209     0.00001    -0.00002     0.00003
  24      -0.00000    -0.00000    -1.69830     0.00001    -0.00002    -0.00003
  25       0.00000     0.00000     0.00142     0.00000     0.00000     0.00000
  26       0.00000    -0.00000    -0.00061     0.00000    -0.00000    -0.00000
  27      -0.00000    -0.00000    -1.69759     0.00001    -0.00002    -0.00003
  28      -0.00000    -0.00000    -0.00099     0.00000     0.00000    -0.00000
  29      -0.00000    -0.00000    -1.69852     0.00001    -0.00002    -0.00003
  30      -0.00000    -0.00000     0.16306     0.00001    -0.00001     0.00001
  31      -0.00000    -0.00000    -0.00095    -0.00000    -0.00000    -0.00000
  32      -0.00000     0.00000     0.00041    -0.00000     0.00000     0.00000
  33      -0.00000    -0.00000     0.16259     0.00001    -0.00001     0.00001
  34       0.00000     0.00000     0.00066    -0.00000    -0.00000     0.00000
  35      -0.00000    -0.00000     0.16322     0.00001    -0.00001     0.00001
  36       0.06556     0.55035     0.00008    -0.45378    -6.19683    -3.52591
  37       1.82666    -0.24846     0.00025    -2.58365     3.43143    -5.70183
  38      -0.85495     0.10701    -0.00007    -6.64865    -0.90958     2.45581
  39      -0.69230    -1.85381     0.00008    -0.45872    -6.19621    -3.53877
  40      -1.81137     2.37425    -0.00000    -0.00918     0.00336     0.01269
  41       0.29439     0.39112     0.00008    -0.44862    -6.19440    -3.52677
  42      -0.90455    -0.02637     0.00025    -2.58512     3.44534    -5.70064
  43       0.52514     1.28981    -0.00007    -6.65166    -0.91928     2.46214
  44       1.06809     0.63181     0.00025    -2.57400     3.44247    -5.69713
  45       0.15370    -0.50929    -0.00007    -6.64713    -0.91402     2.45252
  46      -0.11238    -0.16453     0.00005    -0.29526    -4.03202    -2.29106
  47      -0.73070     0.23535     0.00016    -1.68021     2.24453    -3.69822
  48       0.43161    -0.10137    -0.00004    -4.32638    -0.59693     1.59284
  49       0.22194     0.89466     0.00005    -0.29310    -4.03230    -2.28525
  50       0.79907    -1.04602     0.00000     0.00400    -0.00147    -0.00573
  51      -0.21333    -0.09438     0.00005    -0.29751    -4.03308    -2.29067
  52       0.47415     0.13751     0.00016    -1.67957     2.23846    -3.69875
  53      -0.17720    -0.62247    -0.00004    -4.32507    -0.59269     1.58999
  54      -0.39606    -0.15247     0.00016    -1.68442     2.23971    -3.70034
  55      -0.01335     0.17015    -0.00004    -4.32704    -0.59499     1.59433

           55  
       -----------
   1       6.35724
   2      15.10412
   3      -5.31121
   4      11.35323
   5       1.25849
   6       0.00000
   7      -0.00003
   8       0.00000
   9      -0.00000
  10       0.00013
  11      -0.00001
  12      -0.00001
  13       0.00007
  14      -0.00000
  15       0.00000
  16      -0.00001
  17      -0.00000
  18      -4.74112
  19      -0.00491
  20       0.00212
  21      -4.74357
  22       0.00342
  23      -4.74034
  24      -6.08688
  25       0.00382
  26      -0.00165
  27      -6.08498
  28      -0.00266
  29      -6.08749
  30      -1.12299
  31      -0.00138
  32       0.00059
  33      -1.12368
  34       0.00096
  35      -1.12277
  36       0.00000
  37      -0.00007
  38       0.00000
  39       0.00000
  40       0.00000
  41       0.00000
  42      -0.00007
  43       0.00000
  44      -0.00007
  45       0.00000
  46       0.00001
  47      -0.00006
  48       0.00000
  49       0.00001
  50      -0.00000
  51       0.00001
  52      -0.00006
  53       0.00000
  54      -0.00006
  55       0.00000
  int_init: cando_txs set to always be  F
                                NWChem TDDFT Module
                                -------------------


            General Information
            -------------------
           No. of orbitals :     110
            Alpha orbitals :      55
             Beta orbitals :      55
        Alpha frozen cores :       0
         Beta frozen cores :       0
     Alpha frozen virtuals :       0
      Beta frozen virtuals :       0
         Spin multiplicity :       2
    Number of AO functions :      55
        Use of symmetry is : off
      Symmetry adaption is : off
         Schwarz screening :  0.10D-07

              XC Information
              --------------
              Hartree-Fock (Exact) Exchange   1.00          
              LC-wPBE(h)Exchange Functional   1.00          
     Perdew 1991 LDA Correlation Functional   1.00 local    
    PerdewBurkeErnz. Correlation Functional   1.00 non-local
           Alpha           :  0.00
           Beta            :  1.00
           Gamma           :  0.40

             TDDFT Information
             -----------------
          Calculation type : TDDFT             
         Wavefunction type : Unrestricted
          No. of electrons :       5
           Alpha electrons :       3
            Beta electrons :       2
              No. of roots :       5
          Max subspacesize :    5000
            Max iterations :     100
               Target root :       1
           Target symmetry : none
      Symmetry restriction : off
                 Algorithm : Optimal
        Davidson threshold :  0.10D-03

            Memory Information
            ------------------
          Available GA space size is       52428793950 doubles
          Available MA space size is        4194413092 doubles
          Length of a trial vector is          156     106
          Algorithm : Incore multiple tensor contraction
          Estimated peak GA usage is           5750820 doubles
          Estimated peak MA usage is             18000 doubles

    5 smallest eigenvalue differences (eV) 
--------------------------------------------------------
  No. Spin  Occ  Vir  Irrep   E(Occ)    E(Vir)   E(Diff)
--------------------------------------------------------
    1    1    3    4 a        -0.302    -0.005     8.071
    2    1    3    5 a        -0.302    -0.005     8.071
    3    1    3    6 a        -0.302     0.041     9.318
    4    1    3    7 a        -0.302     0.055     9.704
    5    1    3    8 a        -0.302     0.062     9.888
--------------------------------------------------------

  Entering Davidson iterations
  Unrestricted

  Iter   NTrls   NConv    DeltaV     DeltaE      Time   
  ----  ------  ------  ---------  ---------  --------- 
    1      5       0     0.99E-01   0.10+100        2.2
    2     15       0     0.36E-01   0.31E-01        3.8
    3     25       0     0.11E-01   0.24E-02        3.9
    4     34       0     0.97E-02   0.19E-03        3.6
    5     42       4     0.19E-02   0.67E-04        3.2
    6     44       4     0.40E-03   0.19E-05        1.3
    7     46       5     0.83E-04   0.64E-07        1.3
  ----  ------  ------  ---------  ---------  --------- 
  Convergence criterion met

  Ground state a         -24.624271400428 a.u.
  <S2> =   0.7550

  ----------------------------------------------------------------------------
  Root   1         a              0.000119088 a.u.                0.0032 eV 
  <S2> =   0.7554
  ----------------------------------------------------------------------------
     Transition Moments    X -0.00000   Y  0.00000   Z  0.00000
     Transition Moments   XX -8.46638  XY -3.65167  XZ  4.25962
     Transition Moments   YY 10.29529  YZ -0.09396  ZZ -1.82892
     Dipole Oscillator Strength                    0.0000000000
     Electric Quadrupole                           0.0000000000
     Magnetic Dipole                               0.0000000000
     Total Oscillator Strength                     0.0000000000

     Occ.    2 alpha a   ---  Virt.   13 alpha a   -0.16841 X
     Occ.    2 alpha a   ---  Virt.   13 alpha a   -0.16818 Y
     Occ.    2 alpha a   ---  Virt.   19 alpha a   -0.18265 X
     Occ.    2 alpha a   ---  Virt.   19 alpha a   -0.18249 Y
     Occ.    3 alpha a   ---  Virt.    4 alpha a    3.73025 X
     Occ.    3 alpha a   ---  Virt.    4 alpha a    3.64109 Y
     Occ.    3 alpha a   ---  Virt.    5 alpha a   -2.16630 X
     Occ.    3 alpha a   ---  Virt.    5 alpha a   -2.11453 Y
     Occ.    3 alpha a   ---  Virt.    8 alpha a    1.28411 X
     Occ.    3 alpha a   ---  Virt.    8 alpha a    1.25420 Y
     Occ.    3 alpha a   ---  Virt.    9 alpha a   -0.72797 X
     Occ.    3 alpha a   ---  Virt.    9 alpha a   -0.71102 Y
     Occ.    3 alpha a   ---  Virt.   17 alpha a   -0.54423 X
     Occ.    3 alpha a   ---  Virt.   17 alpha a   -0.53226 Y
     Occ.    3 alpha a   ---  Virt.   18 alpha a    0.38551 X
     Occ.    3 alpha a   ---  Virt.   18 alpha a    0.37703 Y
     Occ.    3 alpha a   ---  Virt.   33 alpha a    0.16052 X
     Occ.    3 alpha a   ---  Virt.   33 alpha a    0.15734 Y
     Occ.    3 alpha a   ---  Virt.   34 alpha a   -0.07423 X
     Occ.    3 alpha a   ---  Virt.   34 alpha a   -0.07276 Y
     Occ.    2 beta  a   ---  Virt.   13 beta  a    0.12799 X
     Occ.    2 beta  a   ---  Virt.   13 beta  a    0.12792 Y
     Occ.    2 beta  a   ---  Virt.   21 beta  a    0.24864 X
     Occ.    2 beta  a   ---  Virt.   21 beta  a    0.24856 Y
     Occ.    2 beta  a   ---  Virt.   41 beta  a    0.10090 X
     Occ.    2 beta  a   ---  Virt.   41 beta  a    0.10089 Y
  ----------------------------------------------------------------------------
  Root   2         a              0.000124532 a.u.                0.0034 eV 
  <S2> =   0.7554
  ----------------------------------------------------------------------------
     Transition Moments    X -0.00000   Y -0.00000   Z -0.00000
     Transition Moments   XX -4.19554  XY -4.17704  XZ -3.38577
     Transition Moments   YY -2.54684  YZ -7.27864  ZZ  6.74236
     Dipole Oscillator Strength                    0.0000000000
     Electric Quadrupole                           0.0000000000
     Magnetic Dipole                               0.0000000000
     Total Oscillator Strength                     0.0000000000

     Occ.    2 alpha a   ---  Virt.   14 alpha a    0.16469 X
     Occ.    2 alpha a   ---  Virt.   14 alpha a    0.16445 Y
     Occ.    2 alpha a   ---  Virt.   20 alpha a    0.17862 X
     Occ.    2 alpha a   ---  Virt.   20 alpha a    0.17845 Y
     Occ.    3 alpha a   ---  Virt.    4 alpha a    2.11958 X
     Occ.    3 alpha a   ---  Virt.    4 alpha a    2.06663 Y
     Occ.    3 alpha a   ---  Virt.    5 alpha a    3.64980 X
     Occ.    3 alpha a   ---  Virt.    5 alpha a    3.55863 Y
     Occ.    3 alpha a   ---  Virt.    8 alpha a    0.71226 X
     Occ.    3 alpha a   ---  Virt.    8 alpha a    0.69492 Y
     Occ.    3 alpha a   ---  Virt.    9 alpha a    1.25640 X
     Occ.    3 alpha a   ---  Virt.    9 alpha a    1.22581 Y
     Occ.    3 alpha a   ---  Virt.   17 alpha a   -0.37718 X
     Occ.    3 alpha a   ---  Virt.   17 alpha a   -0.36851 Y
     Occ.    3 alpha a   ---  Virt.   18 alpha a   -0.53247 X
     Occ.    3 alpha a   ---  Virt.   18 alpha a   -0.52023 Y
     Occ.    3 alpha a   ---  Virt.   33 alpha a    0.07262 X
     Occ.    3 alpha a   ---  Virt.   33 alpha a    0.07111 Y
     Occ.    3 alpha a   ---  Virt.   34 alpha a    0.15704 X
     Occ.    3 alpha a   ---  Virt.   34 alpha a    0.15379 Y
     Occ.    2 beta  a   ---  Virt.   14 beta  a   -0.12516 X
     Occ.    2 beta  a   ---  Virt.   14 beta  a   -0.12509 Y
     Occ.    2 beta  a   ---  Virt.   22 beta  a   -0.24314 X
     Occ.    2 beta  a   ---  Virt.   22 beta  a   -0.24307 Y
     Occ.    2 beta  a   ---  Virt.   42 beta  a   -0.09867 X
     Occ.    2 beta  a   ---  Virt.   42 beta  a   -0.09866 Y
  ----------------------------------------------------------------------------
  Root   3         a              0.187580462 a.u.                5.1043 eV 
  <S2> =   0.7613
  ----------------------------------------------------------------------------
     Transition Moments    X -0.43943   Y -0.70985   Z  0.30574
     Transition Moments   XX -0.00002  XY -0.00000  XZ  0.00000
     Transition Moments   YY -0.00002  YZ  0.00000  ZZ -0.00002
     Dipole Oscillator Strength                    0.0988498014
     Electric Quadrupole                           0.0000000000
     Magnetic Dipole                               0.0000000000
     Total Oscillator Strength                     0.0988498014

     Occ.    2 alpha a   ---  Virt.    7 alpha a    0.05556 X
     Occ.    2 alpha a   ---  Virt.   16 alpha a    0.05019 X
     Occ.    3 alpha a   ---  Virt.    6 alpha a    0.92322 X
     Occ.    3 alpha a   ---  Virt.   10 alpha a   -0.31431 X
     Occ.    3 alpha a   ---  Virt.   15 alpha a   -0.12957 X
     Occ.    3 alpha a   ---  Virt.   24 alpha a    0.05162 X
     Occ.    2 beta  a   ---  Virt.    5 beta  a    0.10864 X
     Occ.    2 beta  a   ---  Virt.    9 beta  a    0.10195 X
  ----------------------------------------------------------------------------
  Root   4         a              0.223013118 a.u.                6.0685 eV 
  <S2> =   0.7560
  ----------------------------------------------------------------------------
     Transition Moments    X -0.00000   Y  0.00000   Z -0.00000
     Transition Moments   XX -1.02137  XY -0.50580  XZ  0.36233
     Transition Moments   YY  1.03117  YZ -0.21074  ZZ -0.00974
     Dipole Oscillator Strength                    0.0000000000
     Electric Quadrupole                           0.0000000877
     Magnetic Dipole                               0.0000000000
     Total Oscillator Strength                     0.0000000877

     Occ.    3 alpha a   ---  Virt.    4 alpha a    0.33071 X
     Occ.    3 alpha a   ---  Virt.    5 alpha a   -0.09483 X
     Occ.    3 alpha a   ---  Virt.    8 alpha a   -0.86759 X
     Occ.    3 alpha a   ---  Virt.    9 alpha a    0.23903 X
     Occ.    3 alpha a   ---  Virt.   17 alpha a    0.24561 X
     Occ.    3 alpha a   ---  Virt.   18 alpha a   -0.09510 X
  ----------------------------------------------------------------------------
  Root   5         a              0.223013126 a.u.                6.0685 eV 
  <S2> =   0.7560
  ----------------------------------------------------------------------------
     Transition Moments    X  0.00000   Y  0.00000   Z  0.00000
     Transition Moments   XX  0.23070  XY  0.35848  XZ  0.48522
     Transition Moments   YY  0.55614  YZ  0.79370  ZZ -0.78688
     Dipole Oscillator Strength                    0.0000000000
     Electric Quadrupole                           0.0000000877
     Magnetic Dipole                               0.0000000000
     Total Oscillator Strength                     0.0000000877

     Occ.    3 alpha a   ---  Virt.    4 alpha a   -0.09483 X
     Occ.    3 alpha a   ---  Virt.    5 alpha a   -0.33071 X
     Occ.    3 alpha a   ---  Virt.    8 alpha a    0.23903 X
     Occ.    3 alpha a   ---  Virt.    9 alpha a    0.86759 X
     Occ.    3 alpha a   ---  Virt.   17 alpha a   -0.09510 X
     Occ.    3 alpha a   ---  Virt.   18 alpha a   -0.24560 X

              Target root =      1
          Target symmetry = none
      Ground state energy =    -24.624271400428
        Excitation energy =      0.000119088285
     Excited state energy =    -24.624152312143

  stored tddft:energy   -24.624152312142648     

 Task  times  cpu:       18.7s     wall:       21.6s


                                NWChem Input Module
                                -------------------


 Summary of allocated global arrays
-----------------------------------
  No active global arrays


MA_summarize_allocated_blocks: starting scan ...
heap block 'gridpts', handle 114, address 0x1381fba8:
	type of elements:		double precision
	number of elements:		1048465655
	address of client space:	0x1381fc00
	index for client space:		12753623
	total number of bytes:		8387725336
MA_summarize_allocated_blocks: scan completed: 1 heap block, 0 stack blocks
MA usage statistics:

	allocation statistics:
					      heap	     stack
					      ----	     -----
	current number of blocks	         1	         0
	maximum number of blocks	        18	        54
	current total bytes		8387725336	         0
	maximum total bytes		8388518416	  22513224
	maximum total K-bytes		   8388519	     22514
	maximum total M-bytes		      8389	        23


                                     CITATION
                                     --------
                Please cite the following reference when publishing
                           results obtained with NWChem:

          E. Apra, E. J. Bylaska, W. A. de Jong, N. Govind, K. Kowalski,
       T. P. Straatsma, M. Valiev, H. J. J. van Dam, Y. Alexeev, J. Anchell,
       V. Anisimov, F. W. Aquino, R. Atta-Fynn, J. Autschbach, N. P. Bauman,
     J. C. Becca, D. E. Bernholdt, K. Bhaskaran-Nair, S. Bogatko, P. Borowski,
         J. Boschen, J. Brabec, A. Bruner, E. Cauet, Y. Chen, G. N. Chuev,
      C. J. Cramer, J. Daily, M. J. O. Deegan, T. H. Dunning Jr., M. Dupuis,
   K. G. Dyall, G. I. Fann, S. A. Fischer, A. Fonari, H. Fruchtl, L. Gagliardi,
      J. Garza, N. Gawande, S. Ghosh, K. Glaesemann, A. W. Gotz, J. Hammond,
       V. Helms, E. D. Hermes, K. Hirao, S. Hirata, M. Jacquelin, L. Jensen,
   B. G. Johnson, H. Jonsson, R. A. Kendall, M. Klemm, R. Kobayashi, V. Konkov,
      S. Krishnamoorthy, M. Krishnan, Z. Lin, R. D. Lins, R. J. Littlefield,
      A. J. Logsdail, K. Lopata, W. Ma, A. V. Marenich, J. Martin del Campo,
   D. Mejia-Rodriguez, J. E. Moore, J. M. Mullin, T. Nakajima, D. R. Nascimento,
    J. A. Nichols, P. J. Nichols, J. Nieplocha, A. Otero-de-la-Roza, B. Palmer,
    A. Panyala, T. Pirojsirikul, B. Peng, R. Peverati, J. Pittner, L. Pollack,
   R. M. Richard, P. Sadayappan, G. C. Schatz, W. A. Shelton, D. W. Silverstein,
   D. M. A. Smith, T. A. Soares, D. Song, M. Swart, H. L. Taylor, G. S. Thomas,
            V. Tipparaju, D. G. Truhlar, K. Tsemekhman, T. Van Voorhis,
      A. Vazquez-Mayagoitia, P. Verma, O. Villa, A. Vishnu, K. D. Vogiatzis,
        D. Wang, J. H. Weare, M. J. Williamson, T. L. Windus, K. Wolinski,
        A. T. Wong, Q. Wu, C. Yang, Q. Yu, M. Zacharias, Z. Zhang, Y. Zhao,
                                and R. J. Harrison
                        "NWChem: Past, present, and future
                         J. Chem. Phys. 152, 184102 (2020)
                               doi:10.1063/5.0004997

                                      AUTHORS
                                      -------
  E. Apra, E. J. Bylaska, N. Govind, K. Kowalski, M. Valiev, D. Mejia-Rodriguez,
       A. Kunitsa, N. P. Bauman, A. Panyala, W. A. de Jong, T. P. Straatsma,
   H. J. J. van Dam, D. Wang, T. L. Windus, J. Hammond, J. Autschbach, A. Woods,
    K. Bhaskaran-Nair, J. Brabec, K. Lopata, S. A. Fischer, S. Krishnamoorthy,
     M. Jacquelin, W. Ma, M. Klemm, O. Villa, Y. Chen, V. Anisimov, F. Aquino,
     S. Hirata, M. T. Hackler, E. Hermes, L. Jensen, J. E. Moore, J. C. Becca,
      V. Konjkov, T. Risthaus, M. Malagoli, A. Marenich, A. Otero-de-la-Roza,
        J. Mullin, P. Nichols, R. Peverati, J. Pittner, Y. Zhao, P.-D. Fan,
        A. Fonari, M. J. Williamson, R. J. Harrison, J. R. Rehr, M. Dupuis,
     D. Silverstein, D. M. A. Smith, J. Nieplocha, V. Tipparaju, M. Krishnan,
     B. E. Van Kuiken, A. Vazquez-Mayagoitia, M. Swart, Q. Wu, T. Van Voorhis,
     A. A. Auer, M. Nooijen, L. D. Crosby, E. Brown, G. Cisneros, G. I. Fann,
   H. Fruchtl, J. Garza, K. Hirao, R. A. Kendall, J. A. Nichols, K. Tsemekhman,
    K. Wolinski, J. Anchell, D. E. Bernholdt, P. Borowski, T. Clark, D. Clerc,
   H. Dachsel, M. J. O. Deegan, K. Dyall, D. Elwood, E. Glendening, M. Gutowski,
   A. C. Hess, J. Jaffe, B. G. Johnson, J. Ju, R. Kobayashi, R. Kutteh, Z. Lin,
   R. Littlefield, X. Long, B. Meng, T. Nakajima, S. Niu, L. Pollack, M. Rosing,
   K. Glaesemann, G. Sandrone, M. Stave, H. Taylor, G. Thomas, J. H. van Lenthe,
                               A. T. Wong, Z. Zhang.

 Total times  cpu:       18.7s     wall:       21.9s
