 argument  1 = /home/aditisingh4812/nw_chem/nwchem-run/nwchem-run/tddft/open/open_atom/geom-MOL-0.4/be.nw
                                         
                                         


             Northwest Computational Chemistry Package (NWChem) 7.2.3
             --------------------------------------------------------


                    Environmental Molecular Sciences Laboratory
                       Pacific Northwest National Laboratory
                                Richland, WA 99352

                              Copyright (c) 1994-2022
                       Pacific Northwest National Laboratory
                            Battelle Memorial Institute

             NWChem is an open-source computational chemistry package
                        distributed under the terms of the
                      Educational Community License (ECL) 2.0
             A copy of the license is included with this distribution
                              in the LICENSE.TXT file

                                  ACKNOWLEDGMENT
                                  --------------

            This software and its documentation were developed at the
            EMSL at Pacific Northwest National Laboratory, a multiprogram
            national laboratory, operated for the U.S. Department of Energy
            by Battelle under Contract Number DE-AC05-76RL01830. Support
            for this work was provided by the Department of Energy Office
            of Biological and Environmental Research, Office of Basic
            Energy Sciences, and the Office of Advanced Scientific Computing.


           Job information
           ---------------

    hostname        = p17
    program         = /home/aditisingh4812/nw_chem/nwchem-7.2.3-release.revision-d690e065-srconly.2024-08-27/nwchem-7.2.3/bin/LINUX64/nwchem
    date            = Thu Apr 24 11:09:12 2025

    compiled        = Mon_Apr_07_18:51:54_2025
    source          = /home/aditisingh4812/nw_chem/nwchem-7.2.3-release.revision-d690e065-srconly.2024-08-27/nwchem-7.2.3
    nwchem branch   = 7.2.3
    nwchem revision = d690e065
    ga revision     = 5.8.0
    use scalapack   = F
    input           = /home/aditisingh4812/nw_chem/nwchem-run/nwchem-run/tddft/open/open_atom/geom-MOL-0.4/be.nw
    prefix          = be.
    data base       = ./be.db
    status          = startup
    nproc           =        8
    time left       =     -1s



           Memory information
           ------------------

    heap     = 2621440000 doubles =  20000.0 Mbytes
    stack    = 2621439997 doubles =  20000.0 Mbytes
    global   = 6553600000 doubles =  50000.0 Mbytes (distinct from heap & stack)
    total    = ********** doubles =  90000.0 Mbytes
    verify   = yes
    hardfail = no 


           Directory information
           ---------------------

  0 permanent = .
  0 scratch   = .




                                NWChem Input Module
                                -------------------



 Scaling coordinates for geometry "geometry" by  1.889725989
 (inverse scale =  0.529177249)



                             Geometry "geometry" -> ""
                             -------------------------

 Output coordinates in angstroms (scale by  1.889725989 to convert to a.u.)

  No.       Tag          Charge          X              Y              Z
 ---- ---------------- ---------- -------------- -------------- --------------
    1 Be                   4.0000     0.00000000     0.00000000     0.00000000

      Atomic Mass 
      ----------- 

      Be                 9.012180


 Effective nuclear repulsion energy (a.u.)       0.0000000000

            Nuclear Dipole moment (a.u.) 
            ----------------------------
        X                 Y               Z
 ---------------- ---------------- ----------------
     0.0000000000     0.0000000000     0.0000000000


            XYZ format geometry
            -------------------
     1
 geometry
 Be                    0.00000000     0.00000000     0.00000000



 Summary of "ao basis" -> "" (cartesian)
 ------------------------------------------------------------------------------
       Tag                 Description            Shells   Functions and Types
 ---------------- ------------------------------  ------  ---------------------
 *                        aug-cc-pVTZ                 on all atoms 


  pbe96 is a nonlocal functional; adding pw91lda local functional. 

                                 NWChem DFT Module
                                 -----------------


                      Basis "ao basis" -> "ao basis" (cartesian)
                      -----
  Be (Beryllium)
  --------------
            Exponent  Coefficients 
       -------------- ---------------------------------------------------------
  1 S  6.86300000E+03  0.000236
  1 S  1.03000000E+03  0.001826
  1 S  2.34700000E+02  0.009452
  1 S  6.65600000E+01  0.037957
  1 S  2.16900000E+01  0.119965
  1 S  7.73400000E+00  0.282162
  1 S  2.91600000E+00  0.427404
  1 S  1.13000000E+00  0.266278
  1 S  1.10100000E-01 -0.007275

  2 S  6.86300000E+03 -0.000043
  2 S  1.03000000E+03 -0.000333
  2 S  2.34700000E+02 -0.001736
  2 S  6.65600000E+01 -0.007012
  2 S  2.16900000E+01 -0.023126
  2 S  7.73400000E+00 -0.058138
  2 S  2.91600000E+00 -0.114556
  2 S  1.13000000E+00 -0.135908
  2 S  1.10100000E-01  0.577441

  3 S  2.57700000E-01  1.000000

  4 S  4.40900000E-02  1.000000

  5 S  1.50300000E-02  1.000000

  6 P  7.43600000E+00  0.010736
  6 P  1.57700000E+00  0.062854
  6 P  4.35200000E-01  0.248180

  7 P  1.43800000E-01  1.000000

  8 P  4.99400000E-02  1.000000

  9 P  7.06000000E-03  1.000000

 10 D  3.48000000E-01  1.000000

 11 D  1.80300000E-01  1.000000

 12 D  6.54000000E-02  1.000000

 13 F  3.25000000E-01  1.000000

 14 F  1.53300000E-01  1.000000



 Summary of "ao basis" -> "ao basis" (cartesian)
 ------------------------------------------------------------------------------
       Tag                 Description            Shells   Functions and Types
 ---------------- ------------------------------  ------  ---------------------
 Be                       aug-cc-pVTZ               14       55   5s4p3d2f




 Summary of "ao basis" -> "ao basis" (cartesian)
 ------------------------------------------------------------------------------
       Tag                 Description            Shells   Functions and Types
 ---------------- ------------------------------  ------  ---------------------
 Be                       aug-cc-pVTZ               14       55   5s4p3d2f




                         Geometry "geometry" -> "geometry"
                         ---------------------------------

 Output coordinates in angstroms (scale by  1.889725989 to convert to a.u.)

  No.       Tag          Charge          X              Y              Z
 ---- ---------------- ---------- -------------- -------------- --------------
    1 Be                   4.0000     0.00000000     0.00000000     0.00000000

      Atomic Mass 
      ----------- 

      Be                 9.012180


 Effective nuclear repulsion energy (a.u.)       0.0000000000

            Nuclear Dipole moment (a.u.) 
            ----------------------------
        X                 Y               Z
 ---------------- ---------------- ----------------
     0.0000000000     0.0000000000     0.0000000000


                      Basis "ao basis" -> "ao basis" (cartesian)
                      -----
  Be (Beryllium)
  --------------
            Exponent  Coefficients 
       -------------- ---------------------------------------------------------
  1 S  6.86300000E+03  0.127866
  1 S  1.03000000E+03  0.238555
  1 S  2.34700000E+02  0.407256
  1 S  6.65600000E+01  0.635566
  1 S  2.16900000E+01  0.866380
  1 S  7.73400000E+00  0.940288
  1 S  2.91600000E+00  0.685312
  1 S  1.13000000E+00  0.209702
  1 S  1.10100000E-01 -0.000999

  2 S  6.86300000E+03 -0.041070
  2 S  1.03000000E+03 -0.076690
  2 S  2.34700000E+02 -0.131856
  2 S  6.65600000E+01 -0.206975
  2 S  2.16900000E+01 -0.294416
  2 S  7.73400000E+00 -0.341531
  2 S  2.91600000E+00 -0.323798
  2 S  1.13000000E+00 -0.188678
  2 S  1.10100000E-01  0.139802

  3 S  2.57700000E-01  0.257778

  4 S  4.40900000E-02  0.068575

  5 S  1.50300000E-02  0.030594

  6 P  7.43600000E+00  0.639716
  6 P  1.57700000E+00  0.539005
  6 P  4.35200000E-01  0.425695

  7 P  1.43800000E-01  0.126223

  8 P  4.99400000E-02  0.033651

  9 P  7.06000000E-03  0.002917

 10 D  3.48000000E-01  0.259521

 11 D  1.80300000E-01  0.082111

 12 D  6.54000000E-02  0.013921

 13 F  3.25000000E-01  0.117406

 14 F  1.53300000E-01  0.021648



    Basis function labels
    ---------------------
       No.  Atm El Type
       ---  --- -- ----
        1    1 Be s          
        2    1 Be s          
        3    1 Be s          
        4    1 Be s          
        5    1 Be s          
        6    1 Be px         
        7    1 Be py         
        8    1 Be pz         
        9    1 Be px         
       10    1 Be py         
       11    1 Be pz         
       12    1 Be px         
       13    1 Be py         
       14    1 Be pz         
       15    1 Be px         
       16    1 Be py         
       17    1 Be pz         
       18    1 Be dxx        
       19    1 Be dxy        
       20    1 Be dxz        
       21    1 Be dyy        
       22    1 Be dyz        
       23    1 Be dzz        
       24    1 Be dxx        
       25    1 Be dxy        
       26    1 Be dxz        
       27    1 Be dyy        
       28    1 Be dyz        
       29    1 Be dzz        
       30    1 Be dxx        
       31    1 Be dxy        
       32    1 Be dxz        
       33    1 Be dyy        
       34    1 Be dyz        
       35    1 Be dzz        
       36    1 Be fxxx       
       37    1 Be fxxy       
       38    1 Be fxxz       
       39    1 Be fxyy       
       40    1 Be fxyz       
       41    1 Be fxzz       
       42    1 Be fyyy       
       43    1 Be fyyz       
       44    1 Be fyzz       
       45    1 Be fzzz       
       46    1 Be fxxx       
       47    1 Be fxxy       
       48    1 Be fxxz       
       49    1 Be fxyy       
       50    1 Be fxyz       
       51    1 Be fxzz       
       52    1 Be fyyy       
       53    1 Be fyyz       
       54    1 Be fyzz       
       55    1 Be fzzz       
  int_init: cando_txs set to always be  F

 Schwarz integral screening summary 
 ---------------------------------- 

        No. of atom pairs =       1
       No. of shell pairs =     105

 Atomic screening 

   value      no.     value      no.     value      no.     value      no.   
  -------- ------    -------- ------    -------- ------    -------- ------   
  0.00D+00      0    1.00D-13      0    1.00D-12      0    1.00D-11      0
  1.00D-10      0    1.00D-09      0    1.00D-08      0    1.00D-07      0
  1.00D-06      0    1.00D-05      0    1.00D-04      0    1.00D-03      0
  1.00D-02      0    1.00D-01      0    1.00D+00      1    1.00D+01      0


 Shell screening 

   value      no.     value      no.     value      no.     value      no.   
  -------- ------    -------- ------    -------- ------    -------- ------   
  0.00D+00      0    1.00D-13      0    1.00D-12      0    1.00D-11      0
  1.00D-10      0    1.00D-09      0    1.00D-08      0    1.00D-07      0
  1.00D-06      0    1.00D-05      0    1.00D-04      0    1.00D-03      1
  1.00D-02      6    1.00D-01     42    1.00D+00     56    1.00D+01      0


  Caching 1-el integrals 
  atom                     1  - neighbor  & S                     1   10.000000000000000       exp AB    7.0600000000000055E-003   7.0600000000000055E-003
 zmins =     0.007060000    0.007060000 lprod =   2 range =        40.96 acc   0.10D-07
 sh     0.000000000
  Center:                     1  Radial Pts. & Wghts. 
    1        0.000011253           4.2754127E-15
    2        0.000090028           1.0945205E-12
    3        0.000303847           2.8052398E-11
    4        0.000720243           2.8022772E-10
    5        0.001406765           1.6704852E-09
    6        0.002430998           7.1840495E-09
    7        0.003860573           2.4663274E-08
    8        0.005763194           7.1800725E-08
    9        0.008206662           1.8430285E-07
   10        0.011258905           4.2837155E-07
   11        0.014988012           9.1884327E-07
   12        0.019462270           1.8445272E-06
   13        0.024750206           3.5024988E-06
   14        0.030920634           6.3433347E-06
   15        0.038042704           1.1029525E-05
   16        0.046185960           1.8509576E-05
   17        0.055420394           3.0110608E-05
   18        0.065816517           4.7652608E-05
   19        0.077445422           7.3587858E-05
   20        0.090378862           1.1116950E-04
   21        0.104689327           1.6465364E-04
   22        0.120450128           2.3954007E-04
   23        0.137735490           3.4285709E-04
   24        0.156620649           4.8349686E-04
   25        0.177181952           6.7260839E-04
   26        0.199496967           9.2405633E-04
   27        0.223644602           1.2549546E-03
   28        0.249705231           1.6862857E-03
   29        0.277760822           2.2436168E-03
   30        0.307895085           2.9579271E-03
   31        0.340193618           3.8665619E-03
   32        0.374744072           5.0143301E-03
   33        0.411636323           6.4547668E-03
   34        0.450962658           8.2515845E-03
   35        0.492817972           1.0480338E-02
   36        0.537299979           1.3230338E-02
   37        0.584509442           1.6606845E-02
   38        0.634550417           2.0733589E-02
   39        0.687530516           2.5755660E-02
   40        0.743561191           3.1842831E-02
   41        0.802758038           3.9193374E-02
   42        0.865241129           4.8038445E-02
   43        0.931135371           5.8647137E-02
   44        1.000570888           7.1332295E-02
   45        1.073683448           8.6457216E-02
   46        1.150614912           1.0444340E-01
   47        1.231513739           1.2577949E-01
   48        1.316535521           1.5103162E-01
   49        1.405843581           1.8085547E-01
   50        1.499609620           2.1601014E-01
   51        1.598014428           2.5737443E-01
   52        1.701248666           3.0596574E-01
   53        1.809513727           3.6296214E-01
   54        1.923022690           4.2972823E-01
   55        2.042001365           5.0784547E-01
   56        2.166689463           5.9914785E-01
   57        2.297341889           7.0576392E-01
   58        2.434230184           8.3016649E-01
   59        2.577644136           9.7523156E-01
   60        2.727893582           1.1443084E+00
   61        2.885310432           1.3413029E+00
   62        3.050250949           1.5707781E+00
   63        3.223098320           1.8380736E+00
   64        3.404265574           2.1494508E+00
   65        3.594198890           2.5122681E+00
   66        3.793381383           2.9351937E+00
   67        4.002337418           3.4284654E+00
   68        4.221637588           4.0042101E+00
   69        4.451904441           4.6768358E+00
   70        4.693819119           5.4635195E+00
   71        4.948129091           6.3848130E+00
   72        5.215657185           7.4654047E+00
   73        5.497312212           8.7350785E+00
   74        5.794101519           1.0229934E+01
   75        6.107145908           1.1993945E+01
   76        6.437697484           1.4080976E+01
   77        6.787161147           1.6557400E+01
   78        7.157120653           1.9505536E+01
   79        7.549370479           2.3028212E+01
   80        7.965955095           2.7254883E+01
   81        8.409217832           3.2349923E+01
   82        8.881862284           3.8524029E+01
   83        9.387030331           4.6050115E+01
   84        9.928402484           5.5285810E+01
   85       10.510328684           6.6705878E+01
   86       11.138001365           8.0949828E+01
   87       11.817688323           9.8893378E+01
   88       12.557052024           1.2175837E+02
   89       13.365596983           1.5128666E+02
   90       14.255312266           1.9002407E+02
   91       15.241621092           2.4180181E+02
   92       16.344832452           3.1258938E+02
   93       17.592451325           4.1208660E+02
   94       19.023039646           5.5689227E+02
   95       20.693073727           7.7733391E+02
   96       22.690110504           1.1337816E+03
   97       25.160832940           1.7613817E+03
   98       28.380221031           3.0194846E+03
   99       32.965614900           6.1744420E+03
  100       40.886897380           1.9190312E+04
     irreducible set of Lebedev Angular points ;
  0.009523809523810  1.000000000000000  0.000000000000000  0.000000000000000
  0.032142857142857  0.577350269189626  0.577350269189626  0.577350269189626
  0.028571428571429  0.459700843380983  0.000000000000000  0.888073833977115
   total no. of   reducible points:  38; test:  1.00000000
  0.012698412698413  1.000000000000000  0.000000000000000  0.000000000000000
  0.022574955908289  0.707106781186547  0.707106781186547  0.000000000000000
  0.021093750000000  0.577350269189626  0.577350269189626  0.577350269189626
  0.020173335537919  0.301511344577764  0.301511344577764  0.904534033733291
   total no. of   reducible points:  50; test:  1.00000000
  0.000513067179734  1.000000000000000  0.000000000000000  0.000000000000000
  0.016604069565742  0.707106781186547  0.707106781186547  0.000000000000000
 -0.029586038961039  0.577350269189626  0.577350269189626  0.577350269189626
  0.026576207082159  0.480384461415261  0.480384461415261  0.733799385705343
  0.016522170993716  0.320772648980776  0.000000000000000  0.947156221362588
   total no. of   reducible points:  74; test:  1.00000000
  0.011544011544012  1.000000000000000  0.000000000000000  0.000000000000000
  0.011943909085856  0.577350269189626  0.577350269189626  0.577350269189626
  0.011110555710603  0.369602846454150  0.369602846454150  0.852518311701268
  0.011876501294537  0.694354006602666  0.694354006602666  0.189063552885395
  0.011812303746904  0.374243039090341  0.000000000000000  0.927330657151172
   total no. of   reducible points:  86; test:  1.00000000
  0.003828270494937  1.000000000000000  0.000000000000000  0.000000000000000
  0.009793737512488  0.577350269189626  0.577350269189626  0.577350269189626
  0.008211737283191  0.185115635344736  0.185115635344736  0.965124035086594
  0.009942814891178  0.690421048382292  0.690421048382292  0.215957291845848
  0.009595471336071  0.395689473055942  0.395689473055942  0.828769981252592
  0.009694996361663  0.478369028812150  0.000000000000000  0.878158910604066
   total no. of   reducible points: 110; test:  1.00000000
  0.000599631368862  1.000000000000000  0.000000000000000  0.000000000000000
  0.007372999718621  0.707106781186547  0.707106781186547  0.000000000000000
  0.007210515360144  0.577350269189626  0.577350269189626  0.577350269189626
  0.007116355493118  0.676441040011426  0.676441040011426  0.291298882209527
  0.006753829486314  0.417496122796545  0.417496122796545  0.807089818359583
  0.007574394159054  0.157467667203908  0.157467667203908  0.974888643677173
  0.006991087353303  0.140355381171318  0.449332832326956  0.882270011260323
   total no. of   reducible points: 146; test:  1.00000000
  0.005544842902037  1.000000000000000  0.000000000000000  0.000000000000000
  0.006071332770671  0.707106781186547  0.707106781186547  0.000000000000000
  0.006383674773515  0.577350269189626  0.577350269189626  0.577350269189626
  0.005183387587748  0.255125262111413  0.255125262111413  0.932642590312691
  0.006317929009814  0.674360146036277  0.674360146036277  0.300793595137701
  0.006201670006589  0.431891069671941  0.431891069671941  0.791795559393492
  0.005477143385137  0.261393136033599  0.000000000000000  0.965232421976448
  0.005968383987681  0.499045316179604  0.144663074432512  0.854415804684659
   total no. of   reducible points: 170; test:  1.00000000
  0.001782340447245  1.000000000000000  0.000000000000000  0.000000000000000
  0.005716905949977  0.707106781186547  0.707106781186547  0.000000000000000
  0.005573383178849  0.577350269189626  0.577350269189626  0.577350269189626
  0.005608704082588  0.671297344269523  0.671297344269523  0.314196994182586
  0.005158237711805  0.289246562757544  0.289246562757544  0.912509096867474
  0.005518771467274  0.444693317871744  0.444693317871744  0.777493219314767
  0.004106777028169  0.129933544765007  0.129933544765007  0.982972302707253
  0.005051846064615  0.345770219761128  0.000000000000000  0.938319218137592
  0.005530248916233  0.159041710538353  0.836036015482459  0.525118572443642
   total no. of   reducible points: 194; test:  1.00000000
 -0.055226399197273  1.000000000000000  0.000000000000000  0.000000000000000
  0.004450274607445  0.577350269189626  0.577350269189626  0.577350269189626
  0.004496841067921  0.449204468739761  0.449204468739761  0.772289253148364
  0.005049153450479  0.252041949021020  0.252041949021020  0.934317778845812
  0.003976408018052  0.698190665844724  0.698190665844724  0.158302205463478
  0.004401400650381  0.658740524346096  0.658740524346096  0.363485684956727
  0.017245443505444  0.040385440500977  0.040385440500977  0.998367683967727
  0.004231083095357  0.582384230971558  0.000000000000000  0.812913653173365
  0.005198069864064  0.354587739051869  0.000000000000000  0.935022745880593
  0.004695720972569  0.227218180899819  0.486466153588665  0.843636521068894
   total no. of   reducible points: 230; test:  1.00000000
 -0.001313769127327  1.000000000000000  0.000000000000000  0.000000000000000
 -0.002522728704859  0.707106781186547  0.707106781186547  0.000000000000000
  0.004186853881701  0.577350269189626  0.577350269189626  0.577350269189626
  0.005315167977811  0.703937339158548  0.703937339158548  0.094575076403713
  0.004047142377086  0.101252624857241  0.101252624857241  0.989694807462905
  0.004112482394407  0.464744872642054  0.464744872642054  0.753673939250816
  0.003595584899759  0.327742065497163  0.327742065497163  0.886098344997499
  0.004256131351428  0.662033866369997  0.662033866369997  0.351315128564633
  0.004229582700647  0.850650808352040  0.000000000000000  0.525731112119134
  0.004080914225781  0.323348454269290  0.115311201100970  0.939227929749916
  0.004071467593831  0.231479015871260  0.524493924092236  0.819343388819120
   total no. of   reducible points: 266; test:  1.00000000
  0.000854591172513  1.000000000000000  0.000000000000000  0.000000000000000
  0.003599119285026  0.577350269189626  0.577350269189626  0.577350269189626
  0.003449788424306  0.351564034557011  0.351564034557011  0.867643624544083
  0.003604822601420  0.656632941021961  0.656632941021961  0.371034178384821
  0.003576729661743  0.472905413258100  0.472905413258100  0.743452042987556
  0.002352101413689  0.096183085226148  0.096183085226148  0.990705621379408
  0.003108953122414  0.221964523629418  0.221964523629418  0.949454317226443
  0.003650045807677  0.701176641608955  0.701176641608955  0.129238672710514
  0.002982344963172  0.264415288706066  0.000000000000000  0.964408914879206
  0.003600820932216  0.571895589187896  0.000000000000000  0.820326419827759
  0.003571540554273  0.251003475177047  0.800072749407395  0.544867737258077
  0.003392312205006  0.123354853258333  0.412772408316853  0.902442529533000
   total no. of   reducible points: 302; test:  1.00000000
  0.003006796749454  1.000000000000000  0.000000000000000  0.000000000000000
  0.003050627745651  0.577350269189626  0.577350269189626  0.577350269189626
  0.001621104600289  0.706896546391232  0.706896546391232  0.024383301669356
  0.003005701484902  0.479468262571203  0.479468262571203  0.734996850587746
  0.002990992529654  0.192753315487802  0.192753315487802  0.962129055136014
  0.002982170644108  0.693035796132712  0.693035796132712  0.198501311223365
  0.002721564237311  0.360830211552009  0.360830211552009  0.860001812127547
  0.003033513795811  0.649848616149617  0.649848616149617  0.394199888605839
  0.003007949555219  0.193294501323034  0.000000000000000  0.981140782843257
  0.002881964603055  0.380049491989930  0.000000000000000  0.924966152698679
  0.002958357626536  0.289955882549957  0.793453785658232  0.535123047718276
  0.003036020026407  0.096841214551040  0.828080150668686  0.552182074349399
  0.002832187403926  0.183343464704166  0.907465826530513  0.378009189874487
   total no. of   reducible points: 350; test:  1.00000000
  0.000526589796822  1.000000000000000  0.000000000000000  0.000000000000000
  0.002548219972003  0.707106781186547  0.707106781186547  0.000000000000000
  0.002512317418927  0.577350269189626  0.577350269189626  0.577350269189626
  0.002530403801186  0.690934630750911  0.690934630750911  0.212646824707552
  0.002014279020919  0.177483605460916  0.177483605460916  0.967987158791473
  0.002501725168403  0.491434263778475  0.491434263778475  0.719016501040843
  0.002513267174598  0.645666470742426  0.645666470742426  0.407712664897770
  0.002302694782227  0.286128901030764  0.286128901030764  0.914472801120872
  0.001462495621595  0.075680843671780  0.075680843671780  0.994255912631278
  0.002445373437313  0.392725976336800  0.392725976336800  0.831584400419232
  0.002417442375639  0.881813287779429  0.000000000000000  0.471598691151316
  0.001910951282180  0.977642811118265  0.000000000000000  0.210272522857307
  0.002416930044325  0.205482369640304  0.868946032287241  0.450233038258263
  0.002512236854563  0.590515704892527  0.799927854385729  0.106801826075805
  0.002496644054553  0.555015236107681  0.771746262691590  0.310428403516654
  0.002236607760438  0.937180985855372  0.334436314534346  0.099217696364292
   total no. of   reducible points: 434; test:  1.00000000
  0.000309512129531  1.000000000000000  0.000000000000000  0.000000000000000
  0.001852379698597  0.577350269189626  0.577350269189626  0.577350269189626
  0.001871790639278  0.704095493822747  0.704095493822747  0.092190407076898
  0.001858812585438  0.680774406645524  0.680774406645524  0.270356088359165
  0.001852028828296  0.637254693925875  0.637254693925875  0.433373868777154
  0.001846715956151  0.504441970780036  0.504441970780036  0.700768575373573
  0.001818471778163  0.421576178401097  0.421576178401097  0.802836877335274
  0.001749564657281  0.331792073647212  0.331792073647212  0.883078727934133
  0.001617210647254  0.238473670142189  0.238473670142189  0.941414158220403
  0.001384737234852  0.145903644915776  0.145903644915776  0.978480583762694
  0.000976433116505  0.060950341155072  0.060950341155072  0.996278129754016
  0.001857161196774  0.611684344200988  0.000000000000000  0.791101929626902
  0.001705153996396  0.396475534819986  0.000000000000000  0.918045287711454
  0.001300321685886  0.172478200990772  0.000000000000000  0.985013335028002
  0.001842866472905  0.561026380862206  0.351828092773352  0.749310611904116
  0.001802658934377  0.474239284255198  0.263471665593795  0.840047488359050
  0.001849830560444  0.598412649788538  0.181664084036021  0.780320742479920
  0.001713904507107  0.379103540769556  0.172079522565688  0.909213475092374
  0.001555213603397  0.277867319058624  0.082130215819325  0.957102074310073
  0.001802239128009  0.503356427107512  0.089992058420749  0.859379855890721
   total no. of   reducible points: 590; test:  1.00000000
  0.000219294208818  1.000000000000000  0.000000000000000  0.000000000000000
  0.001436433617319  0.707106781186547  0.707106781186547  0.000000000000000
  0.001421940344336  0.577350269189626  0.577350269189626  0.577350269189626
  0.000679812351105  0.050872044105024  0.050872044105024  0.997408677652823
  0.000991318423529  0.122819879017883  0.122819879017883  0.984799753572301
  0.001180207833239  0.202689081440879  0.202689081440879  0.958036675983391
  0.001296599602081  0.284774515646429  0.284774515646429  0.915317950483155
  0.001365871427428  0.365671907897803  0.365671907897803  0.855901928697887
  0.001402988604775  0.442826488671347  0.442826488671347  0.779621319527635
  0.001418645563596  0.514061962724974  0.514061962724974  0.686644447264154
  0.001421376741852  0.630640121916680  0.630640121916680  0.452311920313658
  0.001423996475491  0.671688333202261  0.671688333202261  0.312521305001653
  0.001431554042179  0.697979268533688  0.697979268533688  0.160155803498829
  0.000925440149987  0.144686567419531  0.000000000000000  0.989477537495599
  0.001250239995054  0.339026347541122  0.000000000000000  0.940776878793759
  0.001394365843329  0.533580465126351  0.000000000000000  0.845749305193653
  0.001127089094672  0.069440243933494  0.235518789424233  0.969385863498432
  0.001345753760911  0.226900410952946  0.410218247404573  0.883310360522113
  0.001424957283317  0.080255746077753  0.621430241748161  0.779348105702661
  0.001261523341238  0.146799952789657  0.324528434571739  0.934414827052402
  0.001392547106053  0.157150776982473  0.522448218969663  0.838064133458312
  0.001418761677878  0.236570299315725  0.601754663408956  0.762840624604670
  0.001338366684480  0.077148158667657  0.434657551614116  0.897285336132833
  0.001393700862676  0.306293666621073  0.490882658903762  0.815609223203975
  0.001415914757467  0.382247737952479  0.564876814909950  0.731300793659766
   total no. of   reducible points: 770; test:  1.00000000
  0.000143829419053  1.000000000000000  0.000000000000000  0.000000000000000
  0.001125772288287  0.577350269189626  0.577350269189626  0.577350269189626
  0.000494802934195  0.042929635453413  0.042929635453413  0.998155345023847
  0.000735799010913  0.105142685408640  0.105142685408640  0.988883224354686
  0.000888913277130  0.175002486762309  0.175002486762309  0.968890220434707
  0.000988834783892  0.247765337965026  0.247765337965026  0.936602730407163
  0.001053299681709  0.320656712395596  0.320656712395596  0.891267942647606
  0.001092778807015  0.391652074984998  0.391652074984998  0.832596723702352
  0.001114389394063  0.459082587418762  0.459082587418762  0.760582905315251
  0.001123724788052  0.521456388841586  0.521456388841586  0.675400969108414
  0.001125239325244  0.625317024465420  0.625317024465420  0.466858905695743
  0.001126153271816  0.663792674452317  0.663792674452317  0.344613654237438
  0.001130286931124  0.691041039849830  0.691041039849830  0.211954151850184
  0.001134986534364  0.705290700745776  0.705290700745776  0.071624401449956
  0.000682336792711  0.123668676265799  0.000000000000000  0.992323565431490
  0.000945415816045  0.294077711446839  0.000000000000000  0.955781512496548
  0.001074429975386  0.469775384920765  0.000000000000000  0.882785980701182
  0.001129300086569  0.633456324113957  0.000000000000000  0.773778447257375
  0.000843688450090  0.059740486141813  0.202912875277752  0.977372722845310
  0.001075255720449  0.137576040847364  0.460262194248405  0.877058461865803
  0.001108577236864  0.339101652633629  0.503067399966204  0.794942299964208
  0.000956647532378  0.127167519143982  0.281760642244213  0.951020169374390
  0.001080663250717  0.269312074041351  0.433156129172016  0.860143461601762
  0.001126797131196  0.141978645260192  0.625616735858081  0.767102186220558
  0.001022568715358  0.067092846007383  0.379839521685916  0.922616110730809
  0.001108960267713  0.070577381832562  0.551750542142352  0.831017552413474
  0.001122790653436  0.278388847788215  0.602961915615919  0.747620610834086
  0.001032401847117  0.197957893891741  0.358960632958910  0.912118378409121
  0.001107249382284  0.208730706110327  0.534866643813548  0.818748536281022
  0.001121780048520  0.405512213787284  0.567499754607437  0.716591845467024
   total no. of   reducible points: 974; test:  1.00000000
  0.000110518923327  1.000000000000000  0.000000000000000  0.000000000000000
  0.000920523273809  0.707106781186547  0.707106781186547  0.000000000000000
  0.000913315978644  0.577350269189626  0.577350269189626  0.577350269189626
  0.000369042189802  0.037126364496571  0.037126364496571  0.998620681799919
  0.000560399092868  0.091400604122622  0.091400604122622  0.991610739722014
  0.000686529762928  0.153107785246991  0.153107785246991  0.976276606394685
  0.000772033855115  0.218092889166061  0.218092889166061  0.951247067480579
  0.000830154595889  0.283987453220018  0.283987453220018  0.915806886208668
  0.000868669255018  0.349117760096376  0.349117760096376  0.869616915181954
  0.000892707628585  0.412143146144431  0.412143146144431  0.812573722299916
  0.000906082023857  0.471899362714913  0.471899362714913  0.744729469632107
  0.000911977725494  0.527314545284234  0.527314545284234  0.666242253736104
  0.000912872013860  0.620947533244402  0.620947533244402  0.478380938076952
  0.000913071493569  0.656972271185729  0.656972271185729  0.369830866459426
  0.000915287378455  0.684178830907014  0.684178830907014  0.252583955700718
  0.000918743627432  0.701260433012363  0.701260433012363  0.128326186659723
  0.000517697731297  0.107238221547817  0.000000000000000  0.994233354821322
  0.000733114368210  0.258206895949697  0.000000000000000  0.966089643296119
  0.000846323283638  0.417275295530672  0.000000000000000  0.908780131681911
  0.000903112269425  0.570036691179250  0.000000000000000  0.821619237061433
  0.000648577845316  0.982798601826395  0.177177402261533  0.052106394770113
  0.000743503091098  0.962424923032623  0.247571646342629  0.111564095715648
  0.000799852789184  0.940200799412881  0.335461628906649  0.059058888532354
  0.000810173149747  0.932082204014320  0.317361524661198  0.174655167757863
  0.000848338957459  0.904367419939330  0.409026842708536  0.121723505109599
  0.000855629925731  0.891240756007475  0.385429115066922  0.239027847938172
  0.000880320867974  0.867643562846271  0.493222118485128  0.062662506241542
  0.000881104818243  0.858197998604162  0.478532067592243  0.185750519454734
  0.000885028234127  0.839675362404986  0.450742259315706  0.302946697352898
  0.000902134229904  0.816528856402219  0.563212302076210  0.126777480068428
  0.000901009167711  0.801546937078353  0.543430356969390  0.249411216236224
  0.000902269293843  0.777356306907035  0.512351848641987  0.364983226059765
  0.000915801617469  0.766162121390039  0.639427963474910  0.064245492242208
  0.000913157800319  0.755358414353351  0.626980550902439  0.190601822277923
  0.000910781357948  0.734430575755950  0.603116169309631  0.311227594714961
  0.000910576025897  0.704383718402177  0.569370249846844  0.423864478152234
   total no. of   reducible points:1202; test:  1.00000000
  0.000077771607433  1.000000000000000  0.000000000000000  0.000000000000000
  0.000755764641300  0.577350269189626  0.577350269189626  0.577350269189626
  0.000284163380609  0.032292906634139  0.032292906634139  0.998956623864238
  0.000437441912705  0.080367332714622  0.080367332714622  0.993520097262594
  0.000541717474087  0.135428996053165  0.135428996053165  0.981487633165117
  0.000614800089136  0.193896386111443  0.193896386111443  0.961669580940275
  0.000666439448580  0.253734371501127  0.253734371501127  0.933401166400522
  0.000702503935692  0.313525143475257  0.313525143475257  0.896328047546008
  0.000726851178925  0.372155833937534  0.372155833937534  0.850294108254619
  0.000742263753421  0.428680957519570  0.428680957519570  0.795276853253136
  0.000750954503584  0.482251012828299  0.482251012828299  0.731346649169981
  0.000754853505772  0.532067933356626  0.532067933356626  0.658640591360127
  0.000755408896977  0.617299819539427  0.617299819539427  0.487731345715221
  0.000755314717444  0.651067984912748  0.651067984912748  0.390155043595885
  0.000756476765329  0.677731525168736  0.677731525168736  0.285236672931301
  0.000758799180852  0.696310941064874  0.696310941064874  0.174075117999957
  0.000760826183203  0.705893500983175  0.705893500983175  0.058555363028785
  0.000402168044787  0.995554619409186  0.000000000000000  0.094185985013862
  0.000580487179395  0.973411590179421  0.000000000000000  0.229063039585986
  0.000679215195595  0.927569373238863  0.000000000000000  0.373650983980055
  0.000733674121129  0.856802242279510  0.000000000000000  0.515645147000147
  0.000758186630099  0.762349555371937  0.000000000000000  0.647165477620840
  0.000753825785980  0.570752290889222  0.438702803988950  0.694104943230444
  0.000748351724705  0.519646338840308  0.385890841476262  0.762270254565011
  0.000737176366111  0.464633753121535  0.330193737234385  0.821637128756598
  0.000718344889576  0.406390169755769  0.272542357356378  0.872105322408083
  0.000689581552982  0.345632946664309  0.213951023749525  0.913653558859526
  0.000648010580179  0.283139512105033  0.155592230978665  0.946373644151191
  0.000589755889659  0.219768202292533  0.098928789796861  0.970523071240677
  0.000509570884925  0.156469609865035  0.045986429106755  0.986611630545015
  0.000753690642891  0.602735667372129  0.337662514017343  0.722975616397235
  0.000747250596558  0.549603232025510  0.282230130972799  0.786309379645309
  0.000734301713228  0.492170775523457  0.224863234259254  0.840954489612314
  0.000713087158218  0.430942299859848  0.166622472345648  0.886862833757808
  0.000681702203211  0.366410818231367  0.108696490182217  0.924082347686118
  0.000638094114560  0.299018905775844  0.052519897841201  0.952800794667682
  0.000755038137792  0.626872401314500  0.229752365755002  0.744476220506856
  0.000747864664014  0.570732414483461  0.172308060709380  0.802853936449496
  0.000733591872060  0.509636090196037  0.114023846539051  0.852801042441985
  0.000711012052766  0.443872993831246  0.056115220958825  0.894330949550573
  0.000757136397869  0.641997847108239  0.116417442314087  0.757816431224233
  0.000748990832908  0.581721806180261  0.057975895314452  0.811319009870262
   total no. of   reducible points:1454; test:  1.00000000
  qrot: 

              1        2        3      
    1    1.0000   0.0000   0.0000
    2    0.0000   1.0000   0.0000
    3    0.0000   0.0000   1.0000
  me                     0   done genpts
  me                     2   done genpts
  me                     1   done genpts
  me                     3   done genpts
  me                     5   done genpts
  me                     6   done genpts
  me                     4   done genpts
  me                     7   done genpts
  me                     0   done uprt
  me                     1   done uprt
  me                     2   done uprt
  me                     3   done uprt
  me                     4   done uprt
  me                     5   done uprt
  me                     6   done uprt
  me                     7   done uprt
  me                     0  done mem
  me                     1  done mem
  me                     2  done mem
  me                     6  done mem
  me                     7  done mem
  me                     3  done mem
  me                     4  done mem
  me                     5  done mem
  dftinpanae: itol2e                     8  iaoacc                    14  tol_rho    1.0000000000000000E-010

            General Information
            -------------------
          SCF calculation type: DFT
          Wavefunction type:  closed shell.
          No. of atoms     :     1
          No. of electrons :     4
           Alpha electrons :     2
            Beta electrons :     2
          Charge           :     0
          Spin multiplicity:     1
          Use of symmetry is: off; symmetry adaption is: off
          Maximum number of iterations:  50
          AO basis - number of functions:    55
                     number of shells:    14
          Convergence on energy requested:  1.00D-06
          Convergence on density requested:  1.00D-05
          Convergence on gradient requested:  5.00D-04

              XC Information
              --------------
                     Hartree-Fock (Exact) Exchange  1.000          
                     LC-wPBE(h)Exchange Functional  1.000          
            Perdew 1991 LDA Correlation Functional  1.000 local    
           PerdewBurkeErnz. Correlation Functional  1.000 non-local

           Range-Separation Parameters        
           ---------------------------
           Alpha           :  0.00
           Beta            :  1.00
           Gamma           :  0.40
           Short-Range HF  :     F

             Grid Information
             ----------------
          Grid used for XC integration:  xfine     
          Radial quadrature: Mura-Knowles        
          Angular quadrature: Lebedev. 
          Tag              B.-S. Rad. Rad. Pts. Rad. Cut. Ang. Pts.
          ---              ---------- --------- --------- ---------
          Be                  1.05      100          22.0      1454
          Grid pruning is: on 
          Number of quadrature shells:   100
          Spatial weights used:  Erf1

          Convergence Information
          -----------------------
          Convergence aids based upon iterative change in 
          total energy or number of iterations. 
          Levelshifting, if invoked, occurs when the 
          HOMO/LUMO gap drops below (HL_TOL):  1.00D-02
          DIIS, if invoked, will attempt to extrapolate 
          using up to (NFOCK): 10 stored Fock matrices.

                    Damping( 0%)  Levelshifting(0.5)       DIIS
                  --------------- ------------------- ---------------
          dE  on:    start            ASAP                start   
          dE off:    2 iters         50 iters            50 iters 


      Screening Tolerance Information
      -------------------------------
          Density screening/tol_rho:  1.00D-10
          AO Gaussian exp screening on grid/accAOfunc:  14
          CD Gaussian exp screening on grid/accCDfunc:  20
          XC Gaussian exp screening on grid/accXCfunc:  20
          Schwarz screening/accCoul:  1.00D-08



                         Geometry "geometry" -> "geometry"
                         ---------------------------------

 Output coordinates in angstroms (scale by  1.889725989 to convert to a.u.)

  No.       Tag          Charge          X              Y              Z
 ---- ---------------- ---------- -------------- -------------- --------------
    1 Be                   4.0000     0.00000000     0.00000000     0.00000000

      Atomic Mass 
      ----------- 

      Be                 9.012180


 Effective nuclear repulsion energy (a.u.)       0.0000000000

            Nuclear Dipole moment (a.u.) 
            ----------------------------
        X                 Y               Z
 ---------------- ---------------- ----------------
     0.0000000000     0.0000000000     0.0000000000

  
  CAM type calculations without CDFIT are
  only available with the direct option.
  Forcing Direct SCF
  


     <<<<<<    Before call to DFT_SCF.    >>>>>>
     <<<<<< date:  Apr 24  time: 11:09:12 >>>>>>






 Setting tolerance for linear dependence to 1.00D-05

 Setting tolerance for linear dependence to 1.00D-05
 Setting tolerance for linear dependence to 1.00D-05
 Setting tolerance for linear dependence to 1.00D-05

 Setting tolerance for linear dependence to 1.00D-05

 Setting tolerance for linear dependence to 1.00D-05
 Setting tolerance for linear dependence to 1.00D-05
 Setting tolerance for linear dependence to 1.00D-05
  lindep tolerance =    1.0000000000000001E-005
  lindep tolerance =    1.0000000000000001E-005
  lindep tolerance =    1.0000000000000001E-005
  lindep tolerance =    1.0000000000000001E-005
  lindep tolerance =    1.0000000000000001E-005
  lindep tolerance =    1.0000000000000001E-005
  lindep tolerance =    1.0000000000000001E-005
  lindep tolerance =    1.0000000000000001E-005


     <<<<<<    Before 3c-2e initialize.   >>>>>>
     <<<<<< date:  Apr 24  time: 11:09:12 >>>>>>


 Setting fock-build task_bf   :      -1
                    maxquartet:   10000
                    maxeri    :  129600
                    maxscr    :       0
                    intacc    : 0.0D+00
                    denscreen : T
                    dentol    : 1.0D-06


      Superposition of Atomic Density Guess
      -------------------------------------

 Sum of atomic energies:         -14.57287534

      Non-variational initial energy
      ------------------------------

 Total energy =     -14.572875
 1-e energy   =     -19.061832
 2-e energy   =       4.488957
 HOMO         =      -0.309277
 LUMO         =       0.014529


 Setting fock-build task_bf   :      -1
                    maxquartet:   10000
                    maxeri    :  129600
                    maxscr    :       0
                    intacc    : 0.0D+00
                    denscreen : T
                    dentol    : 1.0D-06


 Wrote molecular orbitals to ./be.movecs

  WARNING: movecs_in_org=atomic not equal to movecs_in=./be.movecs
   Time after variat. SCF:      0.2

 Setting fock-build task_bf   :      -1
                    maxquartet:   10000
                    maxeri    :  129600
                    maxscr    :       0
                    intacc    : 0.0D+00
                    denscreen : T
                    dentol    : 1.0D-06

   Time prior to 1st pass:      0.2


     <<<<<<      Before SCF iter loop.    >>>>>>
     <<<<<< date:  Apr 24  time: 11:09:12 >>>>>>

           DAMPING=T LEVELSHIFTING=F DIISING=T
          itol2e= 8 iAOacc=12 iXCacc=20


     <<<<<<            calling 1-e int    >>>>>>
     <<<<<< date:  Apr 24  time: 11:09:12 >>>>>>

    Kinetic Matrix Time:          0.0s

           Kinetic energy =     14.573468871955

    Potential Matrix Time:          0.0s


     <<<<<<    Before call to GETVXC.     >>>>>>
     <<<<<< date:  Apr 24  time: 11:09:12 >>>>>>



     <<<<<<    Before call to fock_2e.    >>>>>>
     <<<<<< date:  Apr 24  time: 11:09:12 >>>>>>



     <<<<<<     After call to fock_2e.    >>>>>>
     <<<<<< date:  Apr 24  time: 11:09:12 >>>>>>

    Fock_2e Build Time:          0.0s
  *** grid_quadv0:                    calc_type:                    1
  *** grid_quadv0:                    grid_written: F
  *** grid_quadv0:                    grad: T
  *** grid_quadv0:                    kske: F
  *** grid_quadv0:                    kslap: F
  *** grid_quadv0:                    do_scf: T
  *** grid_quadv0:                    fde_option:                    0
  *** grid_quadv0:                    n_per_rec:                 3070
  *** grid_quadv0:                    calc_type:                    1
  *** grid_quadv0:                    grid_written: F
  *** grid_quadv0:                    grad: T
  *** grid_quadv0:                    kske: F
  *** grid_quadv0:                    kslap: F
  *** grid_quadv0:                    do_scf: T
  *** grid_quadv0:                    fde_option:                    0
  *** grid_quadv0:                    calc_type:                    1
  *** grid_quadv0:                    grid_written: F
  *** grid_quadv0:                    grad: T
  *** grid_quadv0:                    calc_type:                    1
  *** grid_quadv0:                    grid_written: F
  *** grid_quadv0:                    grad: T
  *** grid_quadv0:                    kske: F
  *** grid_quadv0:                    kslap: F
  *** grid_quadv0:                    calc_type:                    1
  *** grid_quadv0:                    grid_written: F
  *** grid_quadv0:                    grad: T
  *** grid_quadv0:                    kske: F
  *** grid_quadv0:                    kslap: F
  *** grid_quadv0:                    do_scf: T
  *** grid_quadv0:                    fde_option:                    0
  *** grid_quadv0:                    n_per_rec:                 3070
  *** grid_quadv0:                    calc_type:                    1
  *** grid_quadv0:                    grid_written: F
  *** grid_quadv0:                    grad: T
  *** grid_quadv0:                    kske: F
  *** grid_quadv0:                    kslap: F
  *** grid_quadv0:                    do_scf: T
  *** grid_quadv0:                    fde_option:                    0
  *** grid_quadv0:                    n_per_rec:                 3070
  *** grid_quadv0:                    calc_type:                    1
  *** grid_quadv0:                    grid_written: F
  *** grid_quadv0:                    grad: T
  *** grid_quadv0:                    kske: F
  *** grid_quadv0:                    kslap: F
  *** grid_quadv0:                    do_scf: T
  *** grid_quadv0:                    fde_option:                    0
  *** grid_quadv0:                    n_per_rec:                 3070
  *** grid_quadv0:                    calc_type:                    1
  *** grid_quadv0:                    grid_written: F
  *** grid_quadv0:                    grad: T
  *** grid_quadv0:                    kske: F
  *** grid_quadv0:                    kslap: F
  *** grid_quadv0:                    do_scf: T
  *** grid_quadv0:                    fde_option:                    0
  *** grid_quadv0:                    n_per_rec:                 3070
  *** grid_quadv0:                    n_per_rec:                 3070
  *** grid_quadv0:                    kske: F
  *** grid_quadv0:                    kslap: F
  *** grid_quadv0:                    do_scf: T
  *** grid_quadv0:                    fde_option:                    0
  *** grid_quadv0:                    n_per_rec:                 3070
  *** grid_quadv0:                    do_scf: T
  *** grid_quadv0:                    fde_option:                    0
  *** grid_quadv0:                    n_per_rec:                 3070
   0: nuse=   8 avail= 12500000Mb on .
   1: nuse=   8 avail= 12500000Mb on .
   2: nuse=   8 avail= 12500000Mb on .
   5: nuse=   8 avail= 12500000Mb on .
   6: nuse=   8 avail= 12500000Mb on .
   7: nuse=   8 avail= 12500000Mb on .
   3: nuse=   8 avail= 12500000Mb on .
   4: nuse=   8 avail= 12500000Mb on .
 l_cube input   11.00

  atom type   l_cube   no. cubes   segmts   rad   sub
 ----------- -------- ----------- -------- ----- -----
        1     11.71       282         7      41     8

 Grid_pts file          = ./be.gridpts.0
 Record size in doubles =  12289        No. of grid_pts per rec  =   3070
 Max. records in memory =      8        Max. recs in file   = 126656358

 me   0 NQTOTC NQ/cube   14477     111
 me   1 NQTOTC NQ/cube   11421     671
 me   2 NQTOTC NQ/cube   10589     557
 me   3 NQTOTC NQ/cube    8083     538
 me   4 NQTOTC NQ/cube    8294     552
 me   5 NQTOTC NQ/cube    7159     255
 me   6 NQTOTC NQ/cube    7690     240
 me   7 NQTOTC NQ/cube    9719     373

 XC quadr. integrated density :       4.000000 npts:    76845 nctrs:        1

    Fock_xc Build Time:          0.1s


     <<<<<<    Before call to GETVCOUL.   >>>>>>
     <<<<<< date:  Apr 24  time: 11:09:12 >>>>>>



     <<<<<<    End of parallel region.    >>>>>>
     <<<<<< date:  Apr 24  time: 11:09:12 >>>>>>

    Total Fock Matrix Build Time:          0.1s
 Etnew, Ecore, Ecoul, Exc(1), Exc(2), Totsic:   -14.635546412726109       -19.061953657236021        7.1559714798676071       -2.7295642353576941        0.0000000000000000        0.0000000000000000     
  delta =   -14.635546412726109     
  delta =   -14.635546412726109     
  delta =   -14.635546412726109     


         Total DFT energy =      -14.635546412726
      One electron energy =      -19.061953657236
           Coulomb energy =        7.155971479868
  delta =   -14.635546412726109     
  delta =   -14.635546412726109     
  delta =   -14.635546412726109     
  delta =   -14.635546412726109     
    Exchange-Corr. energy =       -2.729564235358
 Nuclear repulsion energy =        0.000000000000

 Numeric. integr. density =        3.999999998072

     Total iterative time =      1.4s




     <<<<<<        calling diis driver    >>>>>>
     <<<<<< date:  Apr 24  time: 11:09:12 >>>>>>

  delta =   -14.635546412726109     
 nhist                     1  pulay matrix 
   0.0000E+00
  -1.0000E+00   3.9957E-02


     <<<<<<         called diis driver    >>>>>>
     <<<<<< date:  Apr 24  time: 11:09:12 >>>>>>


 global array: fock transf[1:55,1:55],  handle: -967 

            1           2           3           4           5           6  
       ----------- ----------- ----------- ----------- ----------- -----------
   1       2.30509     0.00000    -0.00000     0.00000    -2.67141    -0.00000
   2       0.00000     4.44315    -0.00000     0.00000     0.00000     0.00000
   3      -0.00000    -0.00000     4.44315     0.00000     0.00000     0.00000
   4       0.00000     0.00000     0.00000     4.44315     0.00000    -0.00000
   5      -2.67141     0.00000     0.00000     0.00000     7.88283    -0.00000
   6      -0.00000     0.00000     0.00000    -0.00000    -0.00000     1.29940
   7      -0.00000    -0.00000     0.00000     0.00000    -0.00000     0.00000
   8      -0.00000     0.00000     0.00000     0.00000    -0.00000    -0.00000
   9      -0.00000    -0.00000    -0.00000     0.00000     0.00000     0.00000
  10      -0.00000     0.00000    -0.00000     0.00000     0.00000     0.00000
  11      -0.00000    -0.00000     0.00000    -0.00000     0.00000    -0.00000
  12      -0.00000    -0.00000     0.00000     0.00000    -0.00000    -0.00000
  13       0.00000     0.08411    -0.08168     0.06428    -0.00000    -0.00000
  14      -0.00000     0.02010    -0.06835    -0.11315     0.00000    -0.00000
  15      -0.00000    -0.10198    -0.08085     0.03072     0.00000    -0.00000
  16       0.03211     0.00000     0.00000     0.00000     1.40744     0.00000
  17       0.00000     0.00000    -0.00000     0.00000     0.00000     0.00000
  18      -0.00000     0.00000    -0.00000    -0.00000    -0.00000    -0.00000
  19       0.00000    -0.02947     0.13221     0.00742    -0.00000    -0.00000
  20       0.00000     0.06205     0.02051    -0.11888    -0.00000     0.00000
  21       0.00000     0.11698     0.02243     0.06493    -0.00000     0.00000
  22      -0.00000     0.00000     0.00000     0.00000    -0.00000     0.45377
  23       0.12582    -0.00000    -0.00000    -0.00000    -0.28394    -0.00000
  24       0.00000     0.00000     0.00000    -0.00000    -0.00000     0.00000
  25       0.00000     0.00000     0.00000    -0.00000    -0.00000    -0.00000
  26       0.00000     0.00000     0.00000    -0.00000    -0.00000    -0.00000
  27      -0.00000     0.00000    -0.00000     0.00000     0.00000    -0.00000
  28       0.00000    -0.00000     0.00000    -0.00000     0.00000     0.00000
  29       0.00000     0.00000     0.00000     0.00000    -0.00000    -0.00000
  30      -0.00000     0.00039     0.00254    -0.00119     0.00000    -0.00000
  31      -0.00000     0.00280    -0.00034     0.00021     0.00000     0.00000
  32      -0.00000    -0.00005     0.00121     0.00256     0.00000     0.00000
  33      -0.16084     0.00000     0.00000     0.00000     0.12928    -0.00000
  34      -0.00000    -0.03060     0.02200     0.03386     0.00000    -0.00000
  35      -0.00000    -0.00562    -0.04439     0.02376     0.00000     0.00000
  36       0.00000     0.03999     0.01059     0.02925    -0.00000     0.00000
  37      -0.00000    -0.00000     0.00000    -0.00000     0.00000     0.00000
  38       0.00000    -0.00000     0.00000    -0.00000    -0.00000    -0.00000
  39      -0.00000     0.00000    -0.00000    -0.00000    -0.00000     0.00000
  40      -0.00000    -0.00000    -0.00000     0.00000     0.00000    -0.00000
  41       0.00000     0.00000    -0.00000    -0.00000    -0.00000     0.00000
  42       0.00000    -0.02850     0.02256     0.02605    -0.00000    -0.00000
  43      -0.00000     0.02771    -0.00508     0.03473     0.00000     0.00000
  44      -0.00000     0.02048     0.03828    -0.01074     0.00000     0.00000
  45       0.00000    -0.00601    -0.01168    -0.03784    -0.00000     0.00000
  46      -0.00000     0.03733    -0.01442    -0.00147     0.00000     0.00000
  47       0.00000    -0.01319    -0.03549     0.01305    -0.00000     0.00000
  48       0.07160     0.00000     0.00000     0.00000    -0.24770     0.00000
  49      -0.00000     0.00000     0.00000    -0.00000     0.00000     0.00000
  50      -0.00000    -0.00000     0.00000    -0.00000     0.00000    -0.00000
  51       0.04750     0.00000     0.00000     0.00000    -0.04526    -0.00000
  52      -0.00000     0.00276     0.00908    -0.00329     0.00000    -0.00000
  53       0.00000    -0.00086    -0.00318    -0.00949    -0.00000     0.00000
  54      -0.00000     0.00962    -0.00289     0.00010     0.00000     0.00000
  55       0.01250    -0.00000    -0.00000    -0.00000    -0.00785    -0.00000

            7           8           9          10          11          12  
       ----------- ----------- ----------- ----------- ----------- -----------
   1      -0.00000    -0.00000    -0.00000    -0.00000    -0.00000    -0.00000
   2      -0.00000     0.00000    -0.00000     0.00000    -0.00000    -0.00000
   3       0.00000     0.00000    -0.00000    -0.00000     0.00000     0.00000
   4       0.00000     0.00000     0.00000     0.00000    -0.00000     0.00000
   5      -0.00000    -0.00000     0.00000     0.00000     0.00000    -0.00000
   6       0.00000    -0.00000     0.00000     0.00000    -0.00000    -0.00000
   7       1.16908     0.00000    -0.00000     0.00000    -0.00000    -0.00000
   8       0.00000     1.16908     0.00000     0.00000    -0.00000     0.00000
   9      -0.00000     0.00000     1.16908     0.00000    -0.00000     0.00000
  10       0.00000     0.00000     0.00000     1.29940    -0.00000     0.00000
  11      -0.00000    -0.00000    -0.00000    -0.00000     1.29940     0.00000
  12      -0.00000     0.00000     0.00000     0.00000     0.00000     1.29940
  13      -0.00000     0.00000     0.00000    -0.00000     0.00000     0.00000
  14      -0.00000     0.00000     0.00000     0.00000     0.00000     0.00000
  15       0.00000     0.00000     0.00000    -0.00000     0.00000     0.00000
  16       0.00000    -0.00000     0.00000     0.00000    -0.00000     0.00000
  17       0.00000    -0.00000    -0.00000     0.00000     0.00000     0.00000
  18       0.00000    -0.00000     0.00000     0.00000     0.00000    -0.00000
  19       0.00000     0.00000    -0.00000     0.00000    -0.00000    -0.00000
  20       0.00000     0.00000     0.00000     0.00000    -0.00000     0.00000
  21      -0.00000    -0.00000    -0.00000    -0.00000     0.00000    -0.00000
  22      -0.00000     0.00000    -0.00000    -0.00000    -0.00000    -0.00000
  23       0.00000    -0.00000    -0.00000    -0.00000    -0.00000    -0.00000
  24       0.31660    -0.05879    -0.24471     0.00000     0.00000     0.00000
  25      -0.21847    -0.25943    -0.22032    -0.00000    -0.00000     0.00000
  26      -0.12495     0.30465    -0.23484    -0.00000     0.00000     0.00000
  27      -0.00000    -0.00000    -0.00000     0.10512     0.32164    -0.30233
  28       0.00000     0.00000    -0.00000     0.06840    -0.31890    -0.31549
  29       0.00000    -0.00000    -0.00000    -0.43610     0.02751    -0.12236
  30      -0.00000     0.00000     0.00000     0.00000    -0.00000    -0.00000
  31       0.00000    -0.00000     0.00000    -0.00000     0.00000     0.00000
  32      -0.00000     0.00000     0.00000    -0.00000    -0.00000    -0.00000
  33       0.00000    -0.00000    -0.00000    -0.00000     0.00000     0.00000
  34      -0.00000    -0.00000    -0.00000     0.00000    -0.00000    -0.00000
  35      -0.00000    -0.00000     0.00000    -0.00000     0.00000     0.00000
  36      -0.00000    -0.00000    -0.00000    -0.00000     0.00000    -0.00000
  37      -0.00000     0.00000    -0.00000    -0.00000    -0.00000     0.00000
  38       0.00000    -0.00000     0.00000    -0.00000     0.00000    -0.00000
  39      -0.11981     0.03724     0.02768    -0.00000    -0.00000    -0.00000
  40       0.02527    -0.01190     0.12540    -0.00000    -0.00000    -0.00000
  41      -0.03891    -0.12239    -0.00377     0.00000    -0.00000     0.00000
  42       0.00000     0.00000    -0.00000     0.00000    -0.00000    -0.00000
  43       0.00000     0.00000    -0.00000    -0.00000     0.00000    -0.00000
  44      -0.00000     0.00000    -0.00000     0.00000    -0.00000    -0.00000
  45       0.00000    -0.00000     0.00000    -0.00000     0.00000    -0.00000
  46      -0.00000     0.00000    -0.00000     0.00000    -0.00000    -0.00000
  47      -0.00000    -0.00000     0.00000     0.00000    -0.00000    -0.00000
  48      -0.00000     0.00000     0.00000    -0.00000    -0.00000    -0.00000
  49      -0.00000     0.00000    -0.00000    -0.00000    -0.00000     0.00000
  50       0.00000    -0.00000     0.00000    -0.00000    -0.00000    -0.00000
  51       0.00000    -0.00000     0.00000     0.00000     0.00000     0.00000
  52       0.00000     0.00000    -0.00000    -0.00000     0.00000     0.00000
  53       0.00000     0.00000     0.00000    -0.00000     0.00000    -0.00000
  54      -0.00000     0.00000     0.00000     0.00000    -0.00000    -0.00000
  55       0.00000    -0.00000    -0.00000     0.00000     0.00000    -0.00000

           13          14          15          16          17          18  
       ----------- ----------- ----------- ----------- ----------- -----------
   1       0.00000    -0.00000    -0.00000     0.03211     0.00000    -0.00000
   2       0.08411     0.02010    -0.10198     0.00000     0.00000     0.00000
   3      -0.08168    -0.06835    -0.08085     0.00000    -0.00000    -0.00000
   4       0.06428    -0.11315     0.03072     0.00000     0.00000    -0.00000
   5      -0.00000     0.00000     0.00000     1.40744     0.00000    -0.00000
   6      -0.00000    -0.00000    -0.00000     0.00000     0.00000    -0.00000
   7      -0.00000    -0.00000     0.00000     0.00000     0.00000     0.00000
   8       0.00000     0.00000     0.00000    -0.00000    -0.00000    -0.00000
   9       0.00000     0.00000     0.00000     0.00000    -0.00000     0.00000
  10      -0.00000     0.00000    -0.00000     0.00000     0.00000     0.00000
  11       0.00000     0.00000     0.00000    -0.00000     0.00000     0.00000
  12       0.00000     0.00000     0.00000     0.00000     0.00000    -0.00000
  13       1.18885    -0.00000    -0.00000    -0.00000    -0.00000    -0.00000
  14      -0.00000     1.18885     0.00000     0.00000     0.00000    -0.00000
  15      -0.00000     0.00000     1.18885     0.00000     0.00000    -0.00000
  16      -0.00000     0.00000     0.00000     2.11391    -0.00000    -0.00000
  17      -0.00000     0.00000     0.00000    -0.00000     1.16908     0.00000
  18      -0.00000    -0.00000    -0.00000    -0.00000     0.00000     1.16908
  19       0.13302     0.10879     0.07747    -0.00000    -0.00000    -0.00000
  20       0.04258    -0.13818     0.12093    -0.00000    -0.00000    -0.00000
  21      -0.12659     0.06784     0.12209    -0.00000     0.00000     0.00000
  22      -0.00000     0.00000     0.00000    -0.00000     0.00000    -0.00000
  23       0.00000    -0.00000    -0.00000    -0.56426    -0.00000     0.00000
  24       0.00000     0.00000     0.00000     0.00000     0.00000     0.00000
  25      -0.00000    -0.00000    -0.00000     0.00000    -0.00000    -0.00000
  26      -0.00000    -0.00000    -0.00000     0.00000    -0.00000     0.00000
  27      -0.00000    -0.00000    -0.00000    -0.00000     0.00000    -0.00000
  28      -0.00000    -0.00000    -0.00000     0.00000    -0.00000     0.00000
  29       0.00000    -0.00000    -0.00000    -0.00000     0.00000     0.00000
  30       0.28500     0.03521     0.32027     0.00000    -0.00000     0.00000
  31      -0.31439    -0.06319     0.28672     0.00000    -0.00000     0.00000
  32      -0.07052     0.42404     0.01614     0.00000     0.00000     0.00000
  33      -0.00000     0.00000     0.00000     0.09344    -0.00000     0.00000
  34       0.04342     0.11778    -0.04715     0.00000    -0.00000    -0.00000
  35      -0.09265    -0.00460    -0.09683     0.00000     0.00000     0.00000
  36      -0.08667     0.06393     0.07989    -0.00000     0.00000     0.00000
  37      -0.00000     0.00000     0.00000    -0.00000    -0.14099    -0.37907
  38      -0.00000    -0.00000    -0.00000     0.00000    -0.37907     0.14099
  39      -0.00000    -0.00000    -0.00000    -0.00000    -0.00000    -0.00000
  40       0.00000     0.00000    -0.00000    -0.00000     0.00000     0.00000
  41       0.00000    -0.00000    -0.00000    -0.00000     0.00000    -0.00000
  42       0.00335     0.00660    -0.00246    -0.00000     0.00000    -0.00000
  43      -0.00650     0.00395     0.00176     0.00000    -0.00000    -0.00000
  44       0.00273     0.00129     0.00719     0.00000     0.00000     0.00000
  45      -0.00074     0.00184     0.00015    -0.00000    -0.00000    -0.00000
  46       0.00157     0.00071    -0.00100     0.00000     0.00000     0.00000
  47       0.00098     0.00025     0.00171    -0.00000    -0.00000     0.00000
  48      -0.00000     0.00000     0.00000    -0.19774     0.00000    -0.00000
  49      -0.00000     0.00000     0.00000    -0.00000     0.01563    -0.12752
  50      -0.00000     0.00000     0.00000     0.00000    -0.12752    -0.01563
  51      -0.00000     0.00000     0.00000     0.13665     0.00000    -0.00000
  52      -0.00165    -0.00044    -0.00256     0.00000    -0.00000    -0.00000
  53      -0.00097     0.00292     0.00012    -0.00000    -0.00000    -0.00000
  54       0.00241     0.00087    -0.00171     0.00000     0.00000     0.00000
  55       0.00000    -0.00000    -0.00000     0.11758     0.00000    -0.00000

           19          20          21          22          23          24  
       ----------- ----------- ----------- ----------- ----------- -----------
   1       0.00000     0.00000     0.00000    -0.00000     0.12582     0.00000
   2      -0.02947     0.06205     0.11698     0.00000    -0.00000     0.00000
   3       0.13221     0.02051     0.02243     0.00000    -0.00000     0.00000
   4       0.00742    -0.11888     0.06493     0.00000    -0.00000    -0.00000
   5      -0.00000    -0.00000    -0.00000    -0.00000    -0.28394    -0.00000
   6      -0.00000     0.00000     0.00000     0.45377    -0.00000     0.00000
   7       0.00000     0.00000    -0.00000    -0.00000     0.00000     0.31660
   8       0.00000     0.00000    -0.00000     0.00000    -0.00000    -0.05879
   9      -0.00000     0.00000    -0.00000    -0.00000    -0.00000    -0.24471
  10       0.00000     0.00000    -0.00000    -0.00000    -0.00000     0.00000
  11      -0.00000    -0.00000     0.00000    -0.00000    -0.00000     0.00000
  12      -0.00000     0.00000    -0.00000    -0.00000    -0.00000     0.00000
  13       0.13302     0.04258    -0.12659    -0.00000     0.00000     0.00000
  14       0.10879    -0.13818     0.06784     0.00000    -0.00000     0.00000
  15       0.07747     0.12093     0.12209     0.00000    -0.00000     0.00000
  16      -0.00000    -0.00000    -0.00000    -0.00000    -0.56426     0.00000
  17      -0.00000    -0.00000     0.00000     0.00000    -0.00000     0.00000
  18      -0.00000    -0.00000     0.00000    -0.00000     0.00000     0.00000
  19       1.03118     0.00000    -0.00000     0.00000     0.00000    -0.00000
  20       0.00000     1.03118     0.00000     0.00000     0.00000     0.00000
  21      -0.00000     0.00000     1.03118    -0.00000     0.00000    -0.00000
  22       0.00000     0.00000    -0.00000     0.85630    -0.00000    -0.00000
  23       0.00000     0.00000     0.00000    -0.00000     0.56801     0.00000
  24      -0.00000     0.00000    -0.00000    -0.00000     0.00000     0.58345
  25      -0.00000     0.00000     0.00000     0.00000     0.00000     0.00000
  26      -0.00000     0.00000     0.00000     0.00000     0.00000     0.00000
  27      -0.00000     0.00000    -0.00000    -0.00000    -0.00000     0.00000
  28       0.00000     0.00000     0.00000    -0.00000    -0.00000    -0.00000
  29      -0.00000     0.00000    -0.00000     0.00000     0.00000    -0.00000
  30      -0.18893    -0.13059    -0.01536     0.00000    -0.00000    -0.00000
  31       0.07518    -0.08522    -0.20018    -0.00000    -0.00000     0.00000
  32      -0.10788     0.16932    -0.11260    -0.00000    -0.00000     0.00000
  33      -0.00000    -0.00000    -0.00000     0.00000    -0.32669     0.00000
  34       0.28248    -0.38064    -0.06170     0.00000    -0.00000    -0.00000
  35      -0.38440    -0.28402    -0.00768    -0.00000    -0.00000     0.00000
  36       0.03054    -0.05415     0.47394     0.00000     0.00000    -0.00000
  37      -0.00000    -0.00000     0.00000     0.00000    -0.00000     0.00000
  38      -0.00000    -0.00000     0.00000    -0.00000     0.00000    -0.00000
  39      -0.00000    -0.00000     0.00000     0.00000    -0.00000    -0.26189
  40       0.00000     0.00000    -0.00000    -0.00000    -0.00000    -0.12280
  41      -0.00000     0.00000    -0.00000    -0.00000     0.00000    -0.02347
  42       0.00026    -0.00029    -0.00007    -0.00000     0.00000     0.00000
  43      -0.00008    -0.00016     0.00035     0.00000    -0.00000     0.00000
  44       0.00028     0.00022     0.00017     0.00000    -0.00000     0.00000
  45      -0.02324     0.05479    -0.04824    -0.00000     0.00000    -0.00000
  46      -0.04255     0.03097     0.05567    -0.00000    -0.00000     0.00000
  47      -0.05932    -0.04368    -0.02104    -0.00000     0.00000     0.00000
  48      -0.00000    -0.00000    -0.00000     0.00000     0.25469     0.00000
  49      -0.00000     0.00000     0.00000     0.00000     0.00000     0.00000
  50      -0.00000    -0.00000     0.00000    -0.00000     0.00000    -0.00000
  51      -0.00000    -0.00000    -0.00000    -0.00000    -0.00737     0.00000
  52       0.05110     0.03493     0.01460     0.00000    -0.00000    -0.00000
  53      -0.02171     0.04713    -0.03677    -0.00000     0.00000     0.00000
  54      -0.03102     0.02456     0.04979    -0.00000    -0.00000    -0.00000
  55       0.00000     0.00000     0.00000    -0.00000    -0.07202    -0.00000

           25          26          27          28          29          30  
       ----------- ----------- ----------- ----------- ----------- -----------
   1       0.00000     0.00000    -0.00000     0.00000     0.00000    -0.00000
   2       0.00000     0.00000     0.00000    -0.00000     0.00000     0.00039
   3       0.00000     0.00000    -0.00000     0.00000     0.00000     0.00254
   4      -0.00000    -0.00000     0.00000    -0.00000     0.00000    -0.00119
   5      -0.00000    -0.00000     0.00000     0.00000    -0.00000     0.00000
   6      -0.00000    -0.00000    -0.00000     0.00000    -0.00000    -0.00000
   7      -0.21847    -0.12495    -0.00000     0.00000     0.00000    -0.00000
   8      -0.25943     0.30465    -0.00000     0.00000    -0.00000     0.00000
   9      -0.22032    -0.23484    -0.00000    -0.00000    -0.00000     0.00000
  10      -0.00000    -0.00000     0.10512     0.06840    -0.43610     0.00000
  11      -0.00000     0.00000     0.32164    -0.31890     0.02751    -0.00000
  12       0.00000     0.00000    -0.30233    -0.31549    -0.12236    -0.00000
  13      -0.00000    -0.00000    -0.00000    -0.00000     0.00000     0.28500
  14      -0.00000    -0.00000    -0.00000    -0.00000    -0.00000     0.03521
  15      -0.00000    -0.00000    -0.00000    -0.00000    -0.00000     0.32027
  16       0.00000     0.00000    -0.00000     0.00000    -0.00000     0.00000
  17      -0.00000    -0.00000     0.00000    -0.00000     0.00000    -0.00000
  18      -0.00000     0.00000    -0.00000     0.00000     0.00000     0.00000
  19      -0.00000    -0.00000    -0.00000     0.00000    -0.00000    -0.18893
  20       0.00000     0.00000     0.00000     0.00000     0.00000    -0.13059
  21       0.00000     0.00000    -0.00000     0.00000    -0.00000    -0.01536
  22       0.00000     0.00000    -0.00000    -0.00000     0.00000     0.00000
  23       0.00000     0.00000    -0.00000    -0.00000     0.00000    -0.00000
  24       0.00000     0.00000     0.00000    -0.00000    -0.00000    -0.00000
  25       0.58345    -0.00000     0.00000    -0.00000     0.00000    -0.00000
  26      -0.00000     0.58345    -0.00000    -0.00000    -0.00000    -0.00000
  27       0.00000    -0.00000     0.85630    -0.00000     0.00000    -0.00000
  28      -0.00000    -0.00000    -0.00000     0.85630     0.00000    -0.00000
  29       0.00000    -0.00000     0.00000     0.00000     0.85630    -0.00000
  30      -0.00000    -0.00000    -0.00000    -0.00000    -0.00000     0.89208
  31      -0.00000    -0.00000     0.00000    -0.00000    -0.00000    -0.00000
  32      -0.00000     0.00000     0.00000    -0.00000     0.00000     0.00000
  33       0.00000    -0.00000    -0.00000     0.00000    -0.00000     0.00000
  34      -0.00000    -0.00000     0.00000    -0.00000    -0.00000    -0.00049
  35      -0.00000    -0.00000     0.00000    -0.00000    -0.00000     0.01997
  36      -0.00000    -0.00000    -0.00000     0.00000    -0.00000    -0.00109
  37      -0.00000    -0.00000    -0.00000     0.00000     0.00000    -0.00000
  38      -0.00000    -0.00000     0.00000    -0.00000     0.00000    -0.00000
  39       0.05816     0.11067     0.00000    -0.00000    -0.00000    -0.00000
  40      -0.16790    -0.20235     0.00000    -0.00000    -0.00000    -0.00000
  41       0.22944    -0.17614    -0.00000     0.00000    -0.00000    -0.00000
  42       0.00000     0.00000    -0.00000     0.00000     0.00000     0.02551
  43      -0.00000    -0.00000     0.00000    -0.00000     0.00000    -0.07336
  44      -0.00000    -0.00000     0.00000    -0.00000    -0.00000     0.19972
  45       0.00000     0.00000    -0.00000    -0.00000    -0.00000     0.00709
  46      -0.00000    -0.00000     0.00000    -0.00000    -0.00000    -0.01100
  47      -0.00000     0.00000     0.00000     0.00000     0.00000    -0.06035
  48       0.00000     0.00000    -0.00000     0.00000     0.00000     0.00000
  49      -0.00000    -0.00000    -0.00000     0.00000     0.00000     0.00000
  50      -0.00000    -0.00000    -0.00000     0.00000     0.00000    -0.00000
  51      -0.00000     0.00000     0.00000    -0.00000    -0.00000     0.00000
  52       0.00000     0.00000    -0.00000     0.00000     0.00000    -0.07875
  53      -0.00000     0.00000     0.00000     0.00000     0.00000    -0.00811
  54       0.00000     0.00000    -0.00000     0.00000     0.00000     0.01029
  55       0.00000     0.00000     0.00000    -0.00000    -0.00000    -0.00000

           31          32          33          34          35          36  
       ----------- ----------- ----------- ----------- ----------- -----------
   1      -0.00000    -0.00000    -0.16084    -0.00000    -0.00000     0.00000
   2       0.00280    -0.00005     0.00000    -0.03060    -0.00562     0.03999
   3      -0.00034     0.00121     0.00000     0.02200    -0.04439     0.01059
   4       0.00021     0.00256     0.00000     0.03386     0.02376     0.02925
   5       0.00000     0.00000     0.12928     0.00000     0.00000    -0.00000
   6       0.00000     0.00000    -0.00000    -0.00000     0.00000     0.00000
   7       0.00000    -0.00000     0.00000    -0.00000    -0.00000    -0.00000
   8      -0.00000     0.00000    -0.00000    -0.00000    -0.00000    -0.00000
   9       0.00000     0.00000    -0.00000    -0.00000     0.00000    -0.00000
  10      -0.00000    -0.00000    -0.00000     0.00000    -0.00000    -0.00000
  11       0.00000    -0.00000     0.00000    -0.00000     0.00000     0.00000
  12       0.00000    -0.00000     0.00000    -0.00000     0.00000    -0.00000
  13      -0.31439    -0.07052    -0.00000     0.04342    -0.09265    -0.08667
  14      -0.06319     0.42404     0.00000     0.11778    -0.00460     0.06393
  15       0.28672     0.01614     0.00000    -0.04715    -0.09683     0.07989
  16       0.00000     0.00000     0.09344     0.00000     0.00000    -0.00000
  17      -0.00000     0.00000    -0.00000    -0.00000     0.00000     0.00000
  18       0.00000     0.00000     0.00000    -0.00000     0.00000     0.00000
  19       0.07518    -0.10788    -0.00000     0.28248    -0.38440     0.03054
  20      -0.08522     0.16932    -0.00000    -0.38064    -0.28402    -0.05415
  21      -0.20018    -0.11260    -0.00000    -0.06170    -0.00768     0.47394
  22      -0.00000    -0.00000     0.00000     0.00000    -0.00000     0.00000
  23      -0.00000    -0.00000    -0.32669    -0.00000    -0.00000     0.00000
  24       0.00000     0.00000     0.00000    -0.00000     0.00000    -0.00000
  25      -0.00000    -0.00000     0.00000    -0.00000    -0.00000    -0.00000
  26      -0.00000     0.00000    -0.00000    -0.00000    -0.00000    -0.00000
  27       0.00000     0.00000    -0.00000     0.00000     0.00000    -0.00000
  28      -0.00000    -0.00000     0.00000    -0.00000    -0.00000     0.00000
  29      -0.00000     0.00000    -0.00000    -0.00000    -0.00000    -0.00000
  30      -0.00000     0.00000     0.00000    -0.00049     0.01997    -0.00109
  31       0.89208    -0.00000     0.00000     0.01200    -0.00057    -0.01599
  32      -0.00000     0.89208     0.00000    -0.01600    -0.00105    -0.01197
  33       0.00000     0.00000     0.36307     0.00000     0.00000    -0.00000
  34       0.01200    -0.01600     0.00000     0.81475     0.00000     0.00000
  35      -0.00057    -0.00105     0.00000     0.00000     0.81475     0.00000
  36      -0.01599    -0.01197    -0.00000     0.00000     0.00000     0.81475
  37       0.00000    -0.00000     0.00000     0.00000    -0.00000     0.00000
  38       0.00000     0.00000     0.00000    -0.00000     0.00000     0.00000
  39       0.00000     0.00000     0.00000    -0.00000    -0.00000    -0.00000
  40      -0.00000     0.00000     0.00000    -0.00000     0.00000     0.00000
  41      -0.00000     0.00000     0.00000    -0.00000    -0.00000     0.00000
  42      -0.13882     0.16123    -0.00000    -0.19123     0.01888     0.01180
  43       0.14669     0.13791     0.00000    -0.01836    -0.07606    -0.17591
  44       0.07162     0.03006     0.00000     0.01259     0.17585    -0.07735
  45      -0.01135    -0.06028    -0.00000    -0.01542    -0.00395    -0.01675
  46       0.05946    -0.01249     0.00000    -0.01719     0.00450     0.01477
  47      -0.01217    -0.00480    -0.00000     0.00074     0.02232    -0.00594
  48       0.00000     0.00000    -0.62120     0.00000     0.00000    -0.00000
  49       0.00000     0.00000    -0.00000    -0.00000     0.00000    -0.00000
  50       0.00000     0.00000     0.00000    -0.00000    -0.00000    -0.00000
  51       0.00000     0.00000    -0.29087     0.00000     0.00000    -0.00000
  52      -0.01122    -0.00677     0.00000     0.00116    -0.14464     0.03211
  53       0.00934     0.07886    -0.00000    -0.10626    -0.02319    -0.10061
  54      -0.07848     0.01036     0.00000    -0.10325     0.02224     0.10391
  55      -0.00000    -0.00000     0.00929    -0.00000    -0.00000     0.00000

           37          38          39          40          41          42  
       ----------- ----------- ----------- ----------- ----------- -----------
   1      -0.00000     0.00000    -0.00000    -0.00000     0.00000     0.00000
   2      -0.00000    -0.00000     0.00000    -0.00000     0.00000    -0.02850
   3       0.00000     0.00000    -0.00000    -0.00000    -0.00000     0.02256
   4      -0.00000    -0.00000    -0.00000     0.00000    -0.00000     0.02605
   5       0.00000    -0.00000    -0.00000     0.00000    -0.00000    -0.00000
   6       0.00000    -0.00000     0.00000    -0.00000     0.00000    -0.00000
[...]
  39       1.63416    -0.00000     0.00000     1.55027    -8.61187    -5.41916
  40      -0.00000     5.59799     0.00000    -0.00000    -0.00000    -0.00000
  41      -2.02926     0.00000     0.00000     1.55027    -8.61187    -5.41916
  42      -0.09520     0.00000    -0.00000    -0.18997     5.45624    -8.72515
  43       0.18238     0.00000     0.00000   -10.17327    -1.41422    -0.66288
  44      -1.94510    -0.00000    -0.00000    -0.18997     5.45624    -8.72515
  45      -0.04257     0.00000     0.00000   -10.17327    -1.41422    -0.66288
  46      -0.07981    -0.00000     0.00000     1.50295    -8.34898    -5.25373
  47      -1.35183    -0.00000    -0.00000    -0.18417     5.28968    -8.45880
  48       0.03313     0.00000     0.00000    -9.86272    -1.37105    -0.64265
  49      -0.99031     0.00000     0.00000     1.50295    -8.34898    -5.25373
  50       0.00000    -3.39243    -0.00000     0.00000     0.00000     0.00000
  51       1.22975    -0.00000     0.00000     1.50295    -8.34898    -5.25373
  52       0.05769    -0.00000    -0.00000    -0.18417     5.28968    -8.45880
  53      -0.11053    -0.00000     0.00000    -9.86272    -1.37105    -0.64265
  54       1.17875     0.00000    -0.00000    -0.18417     5.28968    -8.45880
  55       0.02580    -0.00000     0.00000    -9.86272    -1.37105    -0.64265

           55  
       -----------
   1     -11.29707
   2     -24.88539
   3      -2.33437
   4      40.64898
   5      -1.98318
   6      -0.00000
   7       0.00000
   8      -0.00000
   9       0.00000
  10      -0.00000
  11       0.00000
  12       0.00000
  13      -0.00000
  14       0.00000
  15      -0.00000
  16       0.00000
  17      -0.00000
  18       2.07822
  19      -0.00000
  20       0.00000
  21       2.07822
  22      -0.00000
  23       2.07822
  24       0.10678
  25      -0.00000
  26      -0.00000
  27       0.10678
  28       0.00000
  29       0.10678
  30      -9.88220
  31       0.00000
  32       0.00000
  33      -9.88220
  34      -0.00000
  35      -9.88220
  36      -0.00000
  37       0.00000
  38      -0.00000
  39      -0.00000
  40      -0.00000
  41      -0.00000
  42       0.00000
  43      -0.00000
  44       0.00000
  45      -0.00000
  46      -0.00000
  47       0.00000
  48      -0.00000
  49      -0.00000
  50       0.00000
  51      -0.00000
  52       0.00000
  53      -0.00000
  54       0.00000
  55      -0.00000
  int_init: cando_txs set to always be  F
                                NWChem TDDFT Module
                                -------------------


            General Information
            -------------------
           No. of orbitals :     110
            Alpha orbitals :      55
             Beta orbitals :      55
        Alpha frozen cores :       0
         Beta frozen cores :       0
     Alpha frozen virtuals :       0
      Beta frozen virtuals :       0
         Spin multiplicity :       1
    Number of AO functions :      55
        Use of symmetry is : off
      Symmetry adaption is : off
         Schwarz screening :  0.10D-07

              XC Information
              --------------
              Hartree-Fock (Exact) Exchange   1.00          
              LC-wPBE(h)Exchange Functional   1.00          
     Perdew 1991 LDA Correlation Functional   1.00 local    
    PerdewBurkeErnz. Correlation Functional   1.00 non-local
           Alpha           :  0.00
           Beta            :  1.00
           Gamma           :  0.40

             TDDFT Information
             -----------------
          Calculation type : TDDFT             
         Wavefunction type : Restricted singlets & triplets
          No. of electrons :       4
           Alpha electrons :       2
            Beta electrons :       2
              No. of roots :       5
          Max subspacesize :    5000
            Max iterations :     100
               Target root :       1
           Target symmetry : none
      Symmetry restriction : off
                 Algorithm : Optimal
        Davidson threshold :  0.10D-03

            Memory Information
            ------------------
          Available GA space size is       52428796975 doubles
          Available MA space size is        4194407364 doubles
          Length of a trial vector is          106
          Algorithm : Incore multiple tensor contraction
          Estimated peak GA usage is           2254160 doubles
          Estimated peak MA usage is             18000 doubles

    5 smallest eigenvalue differences (eV) 
--------------------------------------------------------
  No. Spin  Occ  Vir  Irrep   E(Occ)    E(Vir)   E(Diff)
--------------------------------------------------------
    1    1    2    3 a        -0.328     0.011     9.233
    2    1    2    4 a        -0.328     0.011     9.233
    3    1    2    5 a        -0.328     0.011     9.233
    4    1    2    6 a        -0.328     0.032     9.811
    5    1    2    7 a        -0.328     0.038     9.963
--------------------------------------------------------

  Entering Davidson iterations
  Restricted singlet excited states

  Iter   NTrls   NConv    DeltaV     DeltaE      Time   
  ----  ------  ------  ---------  ---------  --------- 
    1      5       0     0.97E-01   0.10+100        1.5
    2     15       0     0.49E-01   0.47E-01        2.4
    3     25       2     0.33E-02   0.95E-03        2.4
    4     31       3     0.12E-03   0.17E-05        1.7
    5     33       5     0.43E-04   0.23E-08        1.0
  ----  ------  ------  ---------  ---------  --------- 
  Convergence criterion met

  Ground state a         -14.637527821308 a.u.

  ----------------------------------------------------------------------------
  Root   1 singlet a              0.182583143 a.u.                4.9683 eV 
  ----------------------------------------------------------------------------
     Transition Moments    X -0.60020   Y -0.00006   Z -1.85408
     Transition Moments   XX  0.00000  XY  0.00000  XZ -0.00000
     Transition Moments   YY  0.00000  YZ  0.00000  ZZ  0.00000
     Dipole Oscillator Strength                    0.4622826042
     Electric Quadrupole                           0.0000000000
     Magnetic Dipole                               0.0000000000
     Total Oscillator Strength                     0.4622826042

     Occ.    2  a   ---  Virt.    3  a    0.68922 X
     Occ.    2  a   ---  Virt.    3  a   -0.07668 Y
     Occ.    2  a   ---  Virt.    7  a    0.73771 X
     Occ.    2  a   ---  Virt.    7  a   -0.11987 Y
     Occ.    2  a   ---  Virt.   16  a   -0.07771 X
     Occ.    2  a   ---  Virt.   16  a    0.06968 Y
  ----------------------------------------------------------------------------
  Root   2 singlet a              0.182583143 a.u.                4.9683 eV 
  ----------------------------------------------------------------------------
     Transition Moments    X  0.00043   Y -1.94881   Z -0.00008
     Transition Moments   XX -0.00000  XY  0.00000  XZ  0.00000
     Transition Moments   YY -0.00000  YZ -0.00000  ZZ -0.00000
     Dipole Oscillator Strength                    0.4622824210
     Electric Quadrupole                           0.0000000000
     Magnetic Dipole                               0.0000000000
     Total Oscillator Strength                     0.4622824210

     Occ.    2  a   ---  Virt.    4  a    0.68922 X
     Occ.    2  a   ---  Virt.    4  a   -0.07668 Y
     Occ.    2  a   ---  Virt.    8  a    0.73771 X
     Occ.    2  a   ---  Virt.    8  a   -0.11987 Y
     Occ.    2  a   ---  Virt.   17  a   -0.07771 X
     Occ.    2  a   ---  Virt.   17  a    0.06968 Y
  ----------------------------------------------------------------------------
  Root   3 singlet a              0.182583143 a.u.                4.9683 eV 
  ----------------------------------------------------------------------------
     Transition Moments    X  1.85408   Y  0.00043   Z -0.60020
     Transition Moments   XX -0.00000  XY -0.00000  XZ -0.00000
     Transition Moments   YY -0.00000  YZ  0.00000  ZZ -0.00000
     Dipole Oscillator Strength                    0.4622824210
     Electric Quadrupole                           0.0000000000
     Magnetic Dipole                               0.0000000000
     Total Oscillator Strength                     0.4622824210

     Occ.    2  a   ---  Virt.    5  a   -0.68922 X
     Occ.    2  a   ---  Virt.    5  a    0.07668 Y
     Occ.    2  a   ---  Virt.    9  a   -0.73771 X
     Occ.    2  a   ---  Virt.    9  a    0.11987 Y
     Occ.    2  a   ---  Virt.   18  a    0.07771 X
     Occ.    2  a   ---  Virt.   18  a   -0.06968 Y
  ----------------------------------------------------------------------------
  Root   4 singlet a              0.242790128 a.u.                6.6067 eV 
  ----------------------------------------------------------------------------
     Transition Moments    X -0.00000   Y  0.00000   Z -0.00000
     Transition Moments   XX -2.56148  XY -0.00000  XZ -0.00000
     Transition Moments   YY -2.56148  YZ  0.00000  ZZ -2.56148
     Dipole Oscillator Strength                    0.0000000000
     Electric Quadrupole                           0.0000000000
     Magnetic Dipole                               0.0000000000
     Total Oscillator Strength                     0.0000000000

     Occ.    2  a   ---  Virt.    6  a    0.98509 X
     Occ.    2  a   ---  Virt.   15  a   -0.17363 X
  ----------------------------------------------------------------------------
  Root   5 singlet a              0.265067138 a.u.                7.2128 eV 
  ----------------------------------------------------------------------------
     Transition Moments    X  0.03619   Y  0.00000   Z  0.11177
     Transition Moments   XX -0.00000  XY  0.00000  XZ -0.00000
     Transition Moments   YY -0.00000  YZ  0.00000  ZZ -0.00000
     Dipole Oscillator Strength                    0.0024391683
     Electric Quadrupole                           0.0000000000
     Magnetic Dipole                               0.0000000000
     Total Oscillator Strength                     0.0024391683

     Occ.    2  a   ---  Virt.    3  a    0.71942 X
     Occ.    2  a   ---  Virt.    7  a   -0.65731 X
     Occ.    2  a   ---  Virt.   16  a    0.22814 X

              Target root =      1
          Target symmetry = none
      Ground state energy =    -14.637527821308
        Excitation energy =      0.182583142529
     Excited state energy =    -14.454944678779

  stored tddft:energy   -14.454944678779208     

    5 smallest eigenvalue differences (eV) 
--------------------------------------------------------
  No. Spin  Occ  Vir  Irrep   E(Occ)    E(Vir)   E(Diff)
--------------------------------------------------------
    1    1    2    3 a        -0.328     0.011     9.233
    2    1    2    4 a        -0.328     0.011     9.233
    3    1    2    5 a        -0.328     0.011     9.233
    4    1    2    6 a        -0.328     0.032     9.811
    5    1    2    7 a        -0.328     0.038     9.963
--------------------------------------------------------

  Entering Davidson iterations
  Restricted triplet excited states

  Iter   NTrls   NConv    DeltaV     DeltaE      Time   
  ----  ------  ------  ---------  ---------  --------- 
    1      5       0     0.12E+00   0.10+100        1.6
    2     15       0     0.69E-01   0.14E+00        4.3
    3     25       2     0.69E-02   0.30E-02        3.0
    4     31       3     0.11E-03   0.70E-05        2.2
    5     33       5     0.21E-04   0.78E-09        1.3
  ----  ------  ------  ---------  ---------  --------- 
  Convergence criterion met

  Ground state a         -14.637527821308 a.u.

  ----------------------------------------------------------------------------
  Root   1 triplet a              0.057960537 a.u.                1.5772 eV 
  ----------------------------------------------------------------------------
     Transition Moments                    Spin forbidden
     Oscillator Strength                   Spin forbidden

     Occ.    2  a   ---  Virt.    3  a   -0.59341 X
     Occ.    2  a   ---  Virt.    3  a   -0.22204 Y
     Occ.    2  a   ---  Virt.    7  a   -0.84809 X
     Occ.    2  a   ---  Virt.    7  a   -0.33580 Y
     Occ.    2  a   ---  Virt.   16  a    0.33880 X
     Occ.    2  a   ---  Virt.   16  a    0.16541 Y
     Occ.    2  a   ---  Virt.   32  a    0.06876 X
  ----------------------------------------------------------------------------
  Root   2 triplet a              0.057960537 a.u.                1.5772 eV 
  ----------------------------------------------------------------------------
     Transition Moments                    Spin forbidden
     Oscillator Strength                   Spin forbidden

     Occ.    2  a   ---  Virt.    4  a   -0.58747 X
     Occ.    2  a   ---  Virt.    4  a   -0.21982 Y
     Occ.    2  a   ---  Virt.    5  a   -0.08375 X
     Occ.    2  a   ---  Virt.    8  a   -0.83960 X
     Occ.    2  a   ---  Virt.    8  a   -0.33244 Y
     Occ.    2  a   ---  Virt.    9  a   -0.11970 X
     Occ.    2  a   ---  Virt.   17  a    0.33541 X
     Occ.    2  a   ---  Virt.   17  a    0.16375 Y
     Occ.    2  a   ---  Virt.   33  a    0.06808 X
  ----------------------------------------------------------------------------
  Root   3 triplet a              0.057960537 a.u.                1.5772 eV 
  ----------------------------------------------------------------------------
     Transition Moments                    Spin forbidden
     Oscillator Strength                   Spin forbidden

     Occ.    2  a   ---  Virt.    4  a    0.08375 X
     Occ.    2  a   ---  Virt.    5  a   -0.58747 X
     Occ.    2  a   ---  Virt.    5  a   -0.21982 Y
     Occ.    2  a   ---  Virt.    8  a    0.11970 X
     Occ.    2  a   ---  Virt.    9  a   -0.83960 X
     Occ.    2  a   ---  Virt.    9  a   -0.33244 Y
     Occ.    2  a   ---  Virt.   18  a    0.33540 X
     Occ.    2  a   ---  Virt.   18  a    0.16375 Y
     Occ.    2  a   ---  Virt.   34  a    0.06808 X
  ----------------------------------------------------------------------------
  Root   4 triplet a              0.225745506 a.u.                6.1429 eV 
  ----------------------------------------------------------------------------
     Transition Moments                    Spin forbidden
     Oscillator Strength                   Spin forbidden

     Occ.    2  a   ---  Virt.    6  a    0.93898 X
     Occ.    2  a   ---  Virt.   15  a   -0.34134 X
     Occ.    2  a   ---  Virt.   31  a    0.05139 X
  ----------------------------------------------------------------------------
  Root   5 triplet a              0.259030836 a.u.                7.0486 eV 
  ----------------------------------------------------------------------------
     Transition Moments                    Spin forbidden
     Oscillator Strength                   Spin forbidden

     Occ.    2  a   ---  Virt.    3  a    0.82861 X
     Occ.    2  a   ---  Virt.    7  a   -0.46439 X
     Occ.    2  a   ---  Virt.   16  a    0.31125 X

              Target root =      1
          Target symmetry = none
      Ground state energy =    -14.637527821308
        Excitation energy =      0.057960536561
     Excited state energy =    -14.579567284747

  stored tddft:energy   -14.579567284746899     

 Task  times  cpu:       19.2s     wall:       22.3s


                                NWChem Input Module
                                -------------------


 Summary of allocated global arrays
-----------------------------------
  No active global arrays


MA_summarize_allocated_blocks: starting scan ...
heap block 'gridpts', handle 124, address 0x129c06c0:
	type of elements:		double precision
	number of elements:		1048471210
	address of client space:	0x129c0740
	index for client space:		10869823
	total number of bytes:		8387769816
MA_summarize_allocated_blocks: scan completed: 1 heap block, 0 stack blocks
MA usage statistics:

	allocation statistics:
					      heap	     stack
					      ----	     -----
	current number of blocks	         1	         0
	maximum number of blocks	        18	        54
	current total bytes		8387769816	         0
	maximum total bytes		8388564416	  22511880
	maximum total K-bytes		   8388565	     22512
	maximum total M-bytes		      8389	        23


                                     CITATION
                                     --------
                Please cite the following reference when publishing
                           results obtained with NWChem:

          E. Apra, E. J. Bylaska, W. A. de Jong, N. Govind, K. Kowalski,
       T. P. Straatsma, M. Valiev, H. J. J. van Dam, Y. Alexeev, J. Anchell,
       V. Anisimov, F. W. Aquino, R. Atta-Fynn, J. Autschbach, N. P. Bauman,
     J. C. Becca, D. E. Bernholdt, K. Bhaskaran-Nair, S. Bogatko, P. Borowski,
         J. Boschen, J. Brabec, A. Bruner, E. Cauet, Y. Chen, G. N. Chuev,
      C. J. Cramer, J. Daily, M. J. O. Deegan, T. H. Dunning Jr., M. Dupuis,
   K. G. Dyall, G. I. Fann, S. A. Fischer, A. Fonari, H. Fruchtl, L. Gagliardi,
      J. Garza, N. Gawande, S. Ghosh, K. Glaesemann, A. W. Gotz, J. Hammond,
       V. Helms, E. D. Hermes, K. Hirao, S. Hirata, M. Jacquelin, L. Jensen,
   B. G. Johnson, H. Jonsson, R. A. Kendall, M. Klemm, R. Kobayashi, V. Konkov,
      S. Krishnamoorthy, M. Krishnan, Z. Lin, R. D. Lins, R. J. Littlefield,
      A. J. Logsdail, K. Lopata, W. Ma, A. V. Marenich, J. Martin del Campo,
   D. Mejia-Rodriguez, J. E. Moore, J. M. Mullin, T. Nakajima, D. R. Nascimento,
    J. A. Nichols, P. J. Nichols, J. Nieplocha, A. Otero-de-la-Roza, B. Palmer,
    A. Panyala, T. Pirojsirikul, B. Peng, R. Peverati, J. Pittner, L. Pollack,
   R. M. Richard, P. Sadayappan, G. C. Schatz, W. A. Shelton, D. W. Silverstein,
   D. M. A. Smith, T. A. Soares, D. Song, M. Swart, H. L. Taylor, G. S. Thomas,
            V. Tipparaju, D. G. Truhlar, K. Tsemekhman, T. Van Voorhis,
      A. Vazquez-Mayagoitia, P. Verma, O. Villa, A. Vishnu, K. D. Vogiatzis,
        D. Wang, J. H. Weare, M. J. Williamson, T. L. Windus, K. Wolinski,
        A. T. Wong, Q. Wu, C. Yang, Q. Yu, M. Zacharias, Z. Zhang, Y. Zhao,
                                and R. J. Harrison
                        "NWChem: Past, present, and future
                         J. Chem. Phys. 152, 184102 (2020)
                               doi:10.1063/5.0004997

                                      AUTHORS
                                      -------
  E. Apra, E. J. Bylaska, N. Govind, K. Kowalski, M. Valiev, D. Mejia-Rodriguez,
       A. Kunitsa, N. P. Bauman, A. Panyala, W. A. de Jong, T. P. Straatsma,
   H. J. J. van Dam, D. Wang, T. L. Windus, J. Hammond, J. Autschbach, A. Woods,
    K. Bhaskaran-Nair, J. Brabec, K. Lopata, S. A. Fischer, S. Krishnamoorthy,
     M. Jacquelin, W. Ma, M. Klemm, O. Villa, Y. Chen, V. Anisimov, F. Aquino,
     S. Hirata, M. T. Hackler, E. Hermes, L. Jensen, J. E. Moore, J. C. Becca,
      V. Konjkov, T. Risthaus, M. Malagoli, A. Marenich, A. Otero-de-la-Roza,
        J. Mullin, P. Nichols, R. Peverati, J. Pittner, Y. Zhao, P.-D. Fan,
        A. Fonari, M. J. Williamson, R. J. Harrison, J. R. Rehr, M. Dupuis,
     D. Silverstein, D. M. A. Smith, J. Nieplocha, V. Tipparaju, M. Krishnan,
     B. E. Van Kuiken, A. Vazquez-Mayagoitia, M. Swart, Q. Wu, T. Van Voorhis,
     A. A. Auer, M. Nooijen, L. D. Crosby, E. Brown, G. Cisneros, G. I. Fann,
   H. Fruchtl, J. Garza, K. Hirao, R. A. Kendall, J. A. Nichols, K. Tsemekhman,
    K. Wolinski, J. Anchell, D. E. Bernholdt, P. Borowski, T. Clark, D. Clerc,
   H. Dachsel, M. J. O. Deegan, K. Dyall, D. Elwood, E. Glendening, M. Gutowski,
   A. C. Hess, J. Jaffe, B. G. Johnson, J. Ju, R. Kobayashi, R. Kutteh, Z. Lin,
   R. Littlefield, X. Long, B. Meng, T. Nakajima, S. Niu, L. Pollack, M. Rosing,
   K. Glaesemann, G. Sandrone, M. Stave, H. Taylor, G. Thomas, J. H. van Lenthe,
                               A. T. Wong, Z. Zhang.

 Total times  cpu:       19.2s     wall:       22.6s
