 argument  1 = /home/aditisingh4812/nw_chem/nwchem-run/nwchem-run/tddft/open/open_atom/geom-MOL-0.4/c.nw
                                         
                                         


             Northwest Computational Chemistry Package (NWChem) 7.2.3
             --------------------------------------------------------


                    Environmental Molecular Sciences Laboratory
                       Pacific Northwest National Laboratory
                                Richland, WA 99352

                              Copyright (c) 1994-2022
                       Pacific Northwest National Laboratory
                            Battelle Memorial Institute

             NWChem is an open-source computational chemistry package
                        distributed under the terms of the
                      Educational Community License (ECL) 2.0
             A copy of the license is included with this distribution
                              in the LICENSE.TXT file

                                  ACKNOWLEDGMENT
                                  --------------

            This software and its documentation were developed at the
            EMSL at Pacific Northwest National Laboratory, a multiprogram
            national laboratory, operated for the U.S. Department of Energy
            by Battelle under Contract Number DE-AC05-76RL01830. Support
            for this work was provided by the Department of Energy Office
            of Biological and Environmental Research, Office of Basic
            Energy Sciences, and the Office of Advanced Scientific Computing.


           Job information
           ---------------

    hostname        = p17
    program         = /home/aditisingh4812/nw_chem/nwchem-7.2.3-release.revision-d690e065-srconly.2024-08-27/nwchem-7.2.3/bin/LINUX64/nwchem
    date            = Thu Apr 24 11:12:11 2025

    compiled        = Mon_Apr_07_18:51:54_2025
    source          = /home/aditisingh4812/nw_chem/nwchem-7.2.3-release.revision-d690e065-srconly.2024-08-27/nwchem-7.2.3
    nwchem branch   = 7.2.3
    nwchem revision = d690e065
    ga revision     = 5.8.0
    use scalapack   = F
    input           = /home/aditisingh4812/nw_chem/nwchem-run/nwchem-run/tddft/open/open_atom/geom-MOL-0.4/c.nw
    prefix          = c.
    data base       = ./c.db
    status          = startup
    nproc           =        8
    time left       =     -1s



           Memory information
           ------------------

    heap     = 2621440000 doubles =  20000.0 Mbytes
    stack    = 2621439997 doubles =  20000.0 Mbytes
    global   = 6553600000 doubles =  50000.0 Mbytes (distinct from heap & stack)
    total    = ********** doubles =  90000.0 Mbytes
    verify   = yes
    hardfail = no 


           Directory information
           ---------------------

  0 permanent = .
  0 scratch   = .




                                NWChem Input Module
                                -------------------



 Scaling coordinates for geometry "geometry" by  1.889725989
 (inverse scale =  0.529177249)



                             Geometry "geometry" -> ""
                             -------------------------

 Output coordinates in angstroms (scale by  1.889725989 to convert to a.u.)

  No.       Tag          Charge          X              Y              Z
 ---- ---------------- ---------- -------------- -------------- --------------
    1 C                    6.0000     0.00000000     0.00000000     0.00000000

      Atomic Mass 
      ----------- 

      C                 12.000000


 Effective nuclear repulsion energy (a.u.)       0.0000000000

            Nuclear Dipole moment (a.u.) 
            ----------------------------
        X                 Y               Z
 ---------------- ---------------- ----------------
     0.0000000000     0.0000000000     0.0000000000


            XYZ format geometry
            -------------------
     1
 geometry
 C                     0.00000000     0.00000000     0.00000000



 Summary of "ao basis" -> "" (cartesian)
 ------------------------------------------------------------------------------
       Tag                 Description            Shells   Functions and Types
 ---------------- ------------------------------  ------  ---------------------
 *                        aug-cc-pVTZ                 on all atoms 


  pbe96 is a nonlocal functional; adding pw91lda local functional. 

                                 NWChem DFT Module
                                 -----------------


                      Basis "ao basis" -> "ao basis" (cartesian)
                      -----
  C (Carbon)
  ----------
            Exponent  Coefficients 
       -------------- ---------------------------------------------------------
  1 S  8.23600000E+03  0.000531
  1 S  1.23500000E+03  0.004108
  1 S  2.80800000E+02  0.021087
  1 S  7.92700000E+01  0.081853
  1 S  2.55900000E+01  0.234817
  1 S  8.99700000E+00  0.434401
  1 S  3.31900000E+00  0.346129
  1 S  3.64300000E-01 -0.008983

  2 S  8.23600000E+03 -0.000113
  2 S  1.23500000E+03 -0.000878
  2 S  2.80800000E+02 -0.004540
  2 S  7.92700000E+01 -0.018133
  2 S  2.55900000E+01 -0.055760
  2 S  8.99700000E+00 -0.126895
  2 S  3.31900000E+00 -0.170352
  2 S  3.64300000E-01  0.598684

  3 S  9.05900000E-01  1.000000

  4 S  1.28500000E-01  1.000000

  5 S  4.40200000E-02  1.000000

  6 P  1.87100000E+01  0.014031
  6 P  4.13300000E+00  0.086866
  6 P  1.20000000E+00  0.290216

  7 P  3.82700000E-01  1.000000

  8 P  1.20900000E-01  1.000000

  9 P  3.56900000E-02  1.000000

 10 D  1.09700000E+00  1.000000

 11 D  3.18000000E-01  1.000000

 12 D  1.00000000E-01  1.000000

 13 F  7.61000000E-01  1.000000

 14 F  2.68000000E-01  1.000000



 Summary of "ao basis" -> "ao basis" (cartesian)
 ------------------------------------------------------------------------------
       Tag                 Description            Shells   Functions and Types
 ---------------- ------------------------------  ------  ---------------------
 C                        aug-cc-pVTZ               14       55   5s4p3d2f




 Summary of "ao basis" -> "ao basis" (cartesian)
 ------------------------------------------------------------------------------
       Tag                 Description            Shells   Functions and Types
 ---------------- ------------------------------  ------  ---------------------
 C                        aug-cc-pVTZ               14       55   5s4p3d2f




                         Geometry "geometry" -> "geometry"
                         ---------------------------------

 Output coordinates in angstroms (scale by  1.889725989 to convert to a.u.)

  No.       Tag          Charge          X              Y              Z
 ---- ---------------- ---------- -------------- -------------- --------------
    1 C                    6.0000     0.00000000     0.00000000     0.00000000

      Atomic Mass 
      ----------- 

      C                 12.000000


 Effective nuclear repulsion energy (a.u.)       0.0000000000

            Nuclear Dipole moment (a.u.) 
            ----------------------------
        X                 Y               Z
 ---------------- ---------------- ----------------
     0.0000000000     0.0000000000     0.0000000000


                      Basis "ao basis" -> "ao basis" (cartesian)
                      -----
  C (Carbon)
  ----------
            Exponent  Coefficients 
       -------------- ---------------------------------------------------------
  1 S  8.23600000E+03  0.334227
  1 S  1.23500000E+03  0.623075
  1 S  2.80800000E+02  1.053106
  1 S  7.92700000E+01  1.583163
  1 S  2.55900000E+01  1.945099
  1 S  8.99700000E+00  1.642947
  1 S  3.31900000E+00  0.619659
  1 S  3.64300000E-01 -0.003067

  2 S  8.23600000E+03 -0.121010
  2 S  1.23500000E+03 -0.226569
  2 S  2.80800000E+02 -0.385753
  2 S  7.92700000E+01 -0.596702
  2 S  2.55900000E+01 -0.785835
  2 S  8.99700000E+00 -0.816533
  2 S  3.31900000E+00 -0.518870
  2 S  3.64300000E-01  0.347735

  3 S  9.05900000E-01  0.661790

  4 S  1.28500000E-01  0.152963

  5 S  4.40200000E-02  0.068493

  6 P  1.87100000E+01  2.186852
  6 P  4.13300000E+00  2.050312
  6 P  1.20000000E+00  1.459945

  7 P  3.82700000E-01  0.429055

  8 P  1.20900000E-01  0.101619

  9 P  3.56900000E-02  0.022112

 10 D  1.09700000E+00  1.935401

 11 D  3.18000000E-01  0.221644

 12 D  1.00000000E-01  0.029269

 13 F  7.61000000E-01  0.796288

 14 F  2.68000000E-01  0.076078



    Basis function labels
    ---------------------
       No.  Atm El Type
       ---  --- -- ----
        1    1 C  s          
        2    1 C  s          
        3    1 C  s          
        4    1 C  s          
        5    1 C  s          
        6    1 C  px         
        7    1 C  py         
        8    1 C  pz         
        9    1 C  px         
       10    1 C  py         
       11    1 C  pz         
       12    1 C  px         
       13    1 C  py         
       14    1 C  pz         
       15    1 C  px         
       16    1 C  py         
       17    1 C  pz         
       18    1 C  dxx        
       19    1 C  dxy        
       20    1 C  dxz        
       21    1 C  dyy        
       22    1 C  dyz        
       23    1 C  dzz        
       24    1 C  dxx        
       25    1 C  dxy        
       26    1 C  dxz        
       27    1 C  dyy        
       28    1 C  dyz        
       29    1 C  dzz        
       30    1 C  dxx        
       31    1 C  dxy        
       32    1 C  dxz        
       33    1 C  dyy        
       34    1 C  dyz        
       35    1 C  dzz        
       36    1 C  fxxx       
       37    1 C  fxxy       
       38    1 C  fxxz       
       39    1 C  fxyy       
       40    1 C  fxyz       
       41    1 C  fxzz       
       42    1 C  fyyy       
       43    1 C  fyyz       
       44    1 C  fyzz       
       45    1 C  fzzz       
       46    1 C  fxxx       
       47    1 C  fxxy       
       48    1 C  fxxz       
       49    1 C  fxyy       
       50    1 C  fxyz       
       51    1 C  fxzz       
       52    1 C  fyyy       
       53    1 C  fyyz       
       54    1 C  fyzz       
       55    1 C  fzzz       
  int_init: cando_txs set to always be  F

 Schwarz integral screening summary 
 ---------------------------------- 

        No. of atom pairs =       1
       No. of shell pairs =     105

 Atomic screening 

   value      no.     value      no.     value      no.     value      no.   
  -------- ------    -------- ------    -------- ------    -------- ------   
  0.00D+00      0    1.00D-13      0    1.00D-12      0    1.00D-11      0
  1.00D-10      0    1.00D-09      0    1.00D-08      0    1.00D-07      0
  1.00D-06      0    1.00D-05      0    1.00D-04      0    1.00D-03      0
  1.00D-02      0    1.00D-01      0    1.00D+00      1    1.00D+01      0


 Shell screening 

   value      no.     value      no.     value      no.     value      no.   
  -------- ------    -------- ------    -------- ------    -------- ------   
  0.00D+00      0    1.00D-13      0    1.00D-12      0    1.00D-11      0
  1.00D-10      0    1.00D-09      0    1.00D-08      0    1.00D-07      0
  1.00D-06      0    1.00D-05      0    1.00D-04      0    1.00D-03      0
  1.00D-02      6    1.00D-01     35    1.00D+00     64    1.00D+01      0


  Caching 1-el integrals 
  atom                     1  - neighbor  & S                     1   10.000000000000000       exp AB    3.5690000000000027E-002   3.5690000000000027E-002
 zmins =     0.035690000    0.035690000 lprod =   2 range =        18.55 acc   0.10D-07
 sh     0.000000000
  Center:                     1  Radial Pts. & Wghts. 
    1        0.000005215           4.2548796E-16
    2        0.000041720           1.0892640E-13
    3        0.000140807           2.7917674E-12
    4        0.000333771           2.7888189E-11
    5        0.000651916           1.6624625E-10
    6        0.001126560           7.1495474E-10
    7        0.001789046           2.4544826E-09
    8        0.002670748           7.1455895E-09
    9        0.003803087           1.8341772E-08
   10        0.005217541           4.2631425E-08
   11        0.006945664           9.1443043E-08
   12        0.009019101           1.8356687E-07
   13        0.011469608           3.4856777E-07
   14        0.014329074           6.3128702E-07
   15        0.017629546           1.0976555E-06
   16        0.021403250           1.8420682E-06
   17        0.025682622           2.9965999E-06
   18        0.030500337           4.7423751E-06
   19        0.035889342           7.3234445E-06
   20        0.041882887           1.1063559E-05
   21        0.048514566           1.6386287E-05
   22        0.055818352           2.3838966E-05
   23        0.063828642           3.4121049E-05
   24        0.072580301           4.8117482E-05
   25        0.082108709           6.6937812E-05
   26        0.092449814           9.1961846E-05
   27        0.103640181           1.2489276E-04
   28        0.115717058           1.6781872E-04
   29        0.128718430           2.2328416E-04
   30        0.142683088           2.9437214E-04
   31        0.157650701           3.8479924E-04
   32        0.173661887           4.9902482E-04
   33        0.190758296           6.4237672E-04
   34        0.208982695           8.2119554E-04
   35        0.228379060           1.0430005E-03
   36        0.248992673           1.3166798E-03
   37        0.270870229           1.6527089E-03
   38        0.294059949           2.0634014E-03
   39        0.318611703           2.5631966E-03
   40        0.344577137           3.1689903E-03
   41        0.372009822           3.9005143E-03
   42        0.400965401           4.7807735E-03
   43        0.431501757           5.8365479E-03
   44        0.463679192           7.0989714E-03
   45        0.497560622           8.6041997E-03
   46        0.533211789           1.0394180E-02
   47        0.570701489           1.2517542E-02
   48        0.610101827           1.5030628E-02
   49        0.651488489           1.7998689E-02
   50        0.694941044           2.1497273E-02
   51        0.740543271           2.5613836E-02
   52        0.788383528           3.0449631E-02
   53        0.838555142           3.6121897E-02
   54        0.891156856           4.2766441E-02
   55        0.946293315           5.0540649E-02
   56        1.004075605           5.9627038E-02
   57        1.064621851           7.0237442E-02
   58        1.128057890           8.2617953E-02
   59        1.194518014           9.7054791E-02
   60        1.264145806           1.1388127E-01
   61        1.337095078           1.3348612E-01
   62        1.413530928           1.5632343E-01
   63        1.493630929           1.8292461E-01
   64        1.577586485           2.1391279E-01
   65        1.665604364           2.5002027E-01
   66        1.757908446           2.9210971E-01
   67        1.854741730           3.4119999E-01
   68        1.956368638           3.9849795E-01
   69        2.063077668           4.6543749E-01
   70        2.175184470           5.4372804E-01
   71        2.293035432           6.3541493E-01
   72        2.417011866           7.4295514E-01
   73        2.547534927           8.6931274E-01
   74        2.685071436           1.0180803E+00
   75        2.830140786           1.1936343E+00
   76        2.983323224           1.4013351E+00
   77        3.145269800           1.6477881E+00
   78        3.316714449           1.9411858E+00
   79        3.498488758           2.2917617E+00
   80        3.691540166           2.7123989E+00
   81        3.896954605           3.2194559E+00
   82        4.115984961           3.8339014E+00
   83        4.350087227           4.5828955E+00
   84        4.600967005           5.5020294E+00
   85        4.870640122           6.6385516E+00
   86        5.161512828           8.0561059E+00
   87        5.476489711           9.8418432E+00
   88        5.819121670           1.2117362E+01
   89        6.193813236           1.5056009E+01
   90        6.606120319           1.8911146E+01
   91        7.063190262           2.4064054E+01
   92        7.574434551           3.1108814E+01
   93        8.152599394           4.1010751E+01
   94        8.815554958           5.5421774E+01
   95        9.589473191           7.7360069E+01
   96       10.514929258           1.1283365E+02
   97       11.659898192           1.7529225E+02
   98       13.151809746           3.0049832E+02
   99       15.276748368           6.1447886E+02
  100       18.947586591           1.9098149E+03
     irreducible set of Lebedev Angular points ;
  0.009523809523810  1.000000000000000  0.000000000000000  0.000000000000000
  0.032142857142857  0.577350269189626  0.577350269189626  0.577350269189626
  0.028571428571429  0.459700843380983  0.000000000000000  0.888073833977115
   total no. of   reducible points:  38; test:  1.00000000
  0.012698412698413  1.000000000000000  0.000000000000000  0.000000000000000
  0.022574955908289  0.707106781186547  0.707106781186547  0.000000000000000
  0.021093750000000  0.577350269189626  0.577350269189626  0.577350269189626
  0.020173335537919  0.301511344577764  0.301511344577764  0.904534033733291
   total no. of   reducible points:  50; test:  1.00000000
  0.000513067179734  1.000000000000000  0.000000000000000  0.000000000000000
  0.016604069565742  0.707106781186547  0.707106781186547  0.000000000000000
 -0.029586038961039  0.577350269189626  0.577350269189626  0.577350269189626
  0.026576207082159  0.480384461415261  0.480384461415261  0.733799385705343
  0.016522170993716  0.320772648980776  0.000000000000000  0.947156221362588
   total no. of   reducible points:  74; test:  1.00000000
  0.011544011544012  1.000000000000000  0.000000000000000  0.000000000000000
  0.011943909085856  0.577350269189626  0.577350269189626  0.577350269189626
  0.011110555710603  0.369602846454150  0.369602846454150  0.852518311701268
  0.011876501294537  0.694354006602666  0.694354006602666  0.189063552885395
  0.011812303746904  0.374243039090341  0.000000000000000  0.927330657151172
   total no. of   reducible points:  86; test:  1.00000000
  0.003828270494937  1.000000000000000  0.000000000000000  0.000000000000000
  0.009793737512488  0.577350269189626  0.577350269189626  0.577350269189626
  0.008211737283191  0.185115635344736  0.185115635344736  0.965124035086594
  0.009942814891178  0.690421048382292  0.690421048382292  0.215957291845848
  0.009595471336071  0.395689473055942  0.395689473055942  0.828769981252592
  0.009694996361663  0.478369028812150  0.000000000000000  0.878158910604066
   total no. of   reducible points: 110; test:  1.00000000
  0.000599631368862  1.000000000000000  0.000000000000000  0.000000000000000
  0.007372999718621  0.707106781186547  0.707106781186547  0.000000000000000
  0.007210515360144  0.577350269189626  0.577350269189626  0.577350269189626
  0.007116355493118  0.676441040011426  0.676441040011426  0.291298882209527
  0.006753829486314  0.417496122796545  0.417496122796545  0.807089818359583
  0.007574394159054  0.157467667203908  0.157467667203908  0.974888643677173
  0.006991087353303  0.140355381171318  0.449332832326956  0.882270011260323
   total no. of   reducible points: 146; test:  1.00000000
  0.005544842902037  1.000000000000000  0.000000000000000  0.000000000000000
  0.006071332770671  0.707106781186547  0.707106781186547  0.000000000000000
  0.006383674773515  0.577350269189626  0.577350269189626  0.577350269189626
  0.005183387587748  0.255125262111413  0.255125262111413  0.932642590312691
  0.006317929009814  0.674360146036277  0.674360146036277  0.300793595137701
  0.006201670006589  0.431891069671941  0.431891069671941  0.791795559393492
  0.005477143385137  0.261393136033599  0.000000000000000  0.965232421976448
  0.005968383987681  0.499045316179604  0.144663074432512  0.854415804684659
   total no. of   reducible points: 170; test:  1.00000000
  0.001782340447245  1.000000000000000  0.000000000000000  0.000000000000000
  0.005716905949977  0.707106781186547  0.707106781186547  0.000000000000000
  0.005573383178849  0.577350269189626  0.577350269189626  0.577350269189626
  0.005608704082588  0.671297344269523  0.671297344269523  0.314196994182586
  0.005158237711805  0.289246562757544  0.289246562757544  0.912509096867474
  0.005518771467274  0.444693317871744  0.444693317871744  0.777493219314767
  0.004106777028169  0.129933544765007  0.129933544765007  0.982972302707253
  0.005051846064615  0.345770219761128  0.000000000000000  0.938319218137592
  0.005530248916233  0.159041710538353  0.836036015482459  0.525118572443642
   total no. of   reducible points: 194; test:  1.00000000
 -0.055226399197273  1.000000000000000  0.000000000000000  0.000000000000000
  0.004450274607445  0.577350269189626  0.577350269189626  0.577350269189626
  0.004496841067921  0.449204468739761  0.449204468739761  0.772289253148364
  0.005049153450479  0.252041949021020  0.252041949021020  0.934317778845812
  0.003976408018052  0.698190665844724  0.698190665844724  0.158302205463478
  0.004401400650381  0.658740524346096  0.658740524346096  0.363485684956727
  0.017245443505444  0.040385440500977  0.040385440500977  0.998367683967727
  0.004231083095357  0.582384230971558  0.000000000000000  0.812913653173365
  0.005198069864064  0.354587739051869  0.000000000000000  0.935022745880593
  0.004695720972569  0.227218180899819  0.486466153588665  0.843636521068894
   total no. of   reducible points: 230; test:  1.00000000
 -0.001313769127327  1.000000000000000  0.000000000000000  0.000000000000000
 -0.002522728704859  0.707106781186547  0.707106781186547  0.000000000000000
  0.004186853881701  0.577350269189626  0.577350269189626  0.577350269189626
  0.005315167977811  0.703937339158548  0.703937339158548  0.094575076403713
  0.004047142377086  0.101252624857241  0.101252624857241  0.989694807462905
  0.004112482394407  0.464744872642054  0.464744872642054  0.753673939250816
  0.003595584899759  0.327742065497163  0.327742065497163  0.886098344997499
  0.004256131351428  0.662033866369997  0.662033866369997  0.351315128564633
  0.004229582700647  0.850650808352040  0.000000000000000  0.525731112119134
  0.004080914225781  0.323348454269290  0.115311201100970  0.939227929749916
  0.004071467593831  0.231479015871260  0.524493924092236  0.819343388819120
   total no. of   reducible points: 266; test:  1.00000000
  0.000854591172513  1.000000000000000  0.000000000000000  0.000000000000000
  0.003599119285026  0.577350269189626  0.577350269189626  0.577350269189626
  0.003449788424306  0.351564034557011  0.351564034557011  0.867643624544083
  0.003604822601420  0.656632941021961  0.656632941021961  0.371034178384821
  0.003576729661743  0.472905413258100  0.472905413258100  0.743452042987556
  0.002352101413689  0.096183085226148  0.096183085226148  0.990705621379408
  0.003108953122414  0.221964523629418  0.221964523629418  0.949454317226443
  0.003650045807677  0.701176641608955  0.701176641608955  0.129238672710514
  0.002982344963172  0.264415288706066  0.000000000000000  0.964408914879206
  0.003600820932216  0.571895589187896  0.000000000000000  0.820326419827759
  0.003571540554273  0.251003475177047  0.800072749407395  0.544867737258077
  0.003392312205006  0.123354853258333  0.412772408316853  0.902442529533000
   total no. of   reducible points: 302; test:  1.00000000
  0.003006796749454  1.000000000000000  0.000000000000000  0.000000000000000
  0.003050627745651  0.577350269189626  0.577350269189626  0.577350269189626
  0.001621104600289  0.706896546391232  0.706896546391232  0.024383301669356
  0.003005701484902  0.479468262571203  0.479468262571203  0.734996850587746
  0.002990992529654  0.192753315487802  0.192753315487802  0.962129055136014
  0.002982170644108  0.693035796132712  0.693035796132712  0.198501311223365
  0.002721564237311  0.360830211552009  0.360830211552009  0.860001812127547
  0.003033513795811  0.649848616149617  0.649848616149617  0.394199888605839
  0.003007949555219  0.193294501323034  0.000000000000000  0.981140782843257
  0.002881964603055  0.380049491989930  0.000000000000000  0.924966152698679
  0.002958357626536  0.289955882549957  0.793453785658232  0.535123047718276
  0.003036020026407  0.096841214551040  0.828080150668686  0.552182074349399
  0.002832187403926  0.183343464704166  0.907465826530513  0.378009189874487
   total no. of   reducible points: 350; test:  1.00000000
  0.000526589796822  1.000000000000000  0.000000000000000  0.000000000000000
  0.002548219972003  0.707106781186547  0.707106781186547  0.000000000000000
  0.002512317418927  0.577350269189626  0.577350269189626  0.577350269189626
  0.002530403801186  0.690934630750911  0.690934630750911  0.212646824707552
  0.002014279020919  0.177483605460916  0.177483605460916  0.967987158791473
  0.002501725168403  0.491434263778475  0.491434263778475  0.719016501040843
  0.002513267174598  0.645666470742426  0.645666470742426  0.407712664897770
  0.002302694782227  0.286128901030764  0.286128901030764  0.914472801120872
  0.001462495621595  0.075680843671780  0.075680843671780  0.994255912631278
  0.002445373437313  0.392725976336800  0.392725976336800  0.831584400419232
  0.002417442375639  0.881813287779429  0.000000000000000  0.471598691151316
  0.001910951282180  0.977642811118265  0.000000000000000  0.210272522857307
  0.002416930044325  0.205482369640304  0.868946032287241  0.450233038258263
  0.002512236854563  0.590515704892527  0.799927854385729  0.106801826075805
  0.002496644054553  0.555015236107681  0.771746262691590  0.310428403516654
  0.002236607760438  0.937180985855372  0.334436314534346  0.099217696364292
   total no. of   reducible points: 434; test:  1.00000000
  0.000309512129531  1.000000000000000  0.000000000000000  0.000000000000000
  0.001852379698597  0.577350269189626  0.577350269189626  0.577350269189626
  0.001871790639278  0.704095493822747  0.704095493822747  0.092190407076898
  0.001858812585438  0.680774406645524  0.680774406645524  0.270356088359165
  0.001852028828296  0.637254693925875  0.637254693925875  0.433373868777154
  0.001846715956151  0.504441970780036  0.504441970780036  0.700768575373573
  0.001818471778163  0.421576178401097  0.421576178401097  0.802836877335274
  0.001749564657281  0.331792073647212  0.331792073647212  0.883078727934133
  0.001617210647254  0.238473670142189  0.238473670142189  0.941414158220403
  0.001384737234852  0.145903644915776  0.145903644915776  0.978480583762694
  0.000976433116505  0.060950341155072  0.060950341155072  0.996278129754016
  0.001857161196774  0.611684344200988  0.000000000000000  0.791101929626902
  0.001705153996396  0.396475534819986  0.000000000000000  0.918045287711454
  0.001300321685886  0.172478200990772  0.000000000000000  0.985013335028002
  0.001842866472905  0.561026380862206  0.351828092773352  0.749310611904116
  0.001802658934377  0.474239284255198  0.263471665593795  0.840047488359050
  0.001849830560444  0.598412649788538  0.181664084036021  0.780320742479920
  0.001713904507107  0.379103540769556  0.172079522565688  0.909213475092374
  0.001555213603397  0.277867319058624  0.082130215819325  0.957102074310073
  0.001802239128009  0.503356427107512  0.089992058420749  0.859379855890721
   total no. of   reducible points: 590; test:  1.00000000
  0.000219294208818  1.000000000000000  0.000000000000000  0.000000000000000
  0.001436433617319  0.707106781186547  0.707106781186547  0.000000000000000
  0.001421940344336  0.577350269189626  0.577350269189626  0.577350269189626
  0.000679812351105  0.050872044105024  0.050872044105024  0.997408677652823
  0.000991318423529  0.122819879017883  0.122819879017883  0.984799753572301
  0.001180207833239  0.202689081440879  0.202689081440879  0.958036675983391
  0.001296599602081  0.284774515646429  0.284774515646429  0.915317950483155
  0.001365871427428  0.365671907897803  0.365671907897803  0.855901928697887
  0.001402988604775  0.442826488671347  0.442826488671347  0.779621319527635
  0.001418645563596  0.514061962724974  0.514061962724974  0.686644447264154
  0.001421376741852  0.630640121916680  0.630640121916680  0.452311920313658
  0.001423996475491  0.671688333202261  0.671688333202261  0.312521305001653
  0.001431554042179  0.697979268533688  0.697979268533688  0.160155803498829
  0.000925440149987  0.144686567419531  0.000000000000000  0.989477537495599
  0.001250239995054  0.339026347541122  0.000000000000000  0.940776878793759
  0.001394365843329  0.533580465126351  0.000000000000000  0.845749305193653
  0.001127089094672  0.069440243933494  0.235518789424233  0.969385863498432
  0.001345753760911  0.226900410952946  0.410218247404573  0.883310360522113
  0.001424957283317  0.080255746077753  0.621430241748161  0.779348105702661
  0.001261523341238  0.146799952789657  0.324528434571739  0.934414827052402
  0.001392547106053  0.157150776982473  0.522448218969663  0.838064133458312
  0.001418761677878  0.236570299315725  0.601754663408956  0.762840624604670
  0.001338366684480  0.077148158667657  0.434657551614116  0.897285336132833
  0.001393700862676  0.306293666621073  0.490882658903762  0.815609223203975
  0.001415914757467  0.382247737952479  0.564876814909950  0.731300793659766
   total no. of   reducible points: 770; test:  1.00000000
  0.000143829419053  1.000000000000000  0.000000000000000  0.000000000000000
  0.001125772288287  0.577350269189626  0.577350269189626  0.577350269189626
  0.000494802934195  0.042929635453413  0.042929635453413  0.998155345023847
  0.000735799010913  0.105142685408640  0.105142685408640  0.988883224354686
  0.000888913277130  0.175002486762309  0.175002486762309  0.968890220434707
  0.000988834783892  0.247765337965026  0.247765337965026  0.936602730407163
  0.001053299681709  0.320656712395596  0.320656712395596  0.891267942647606
  0.001092778807015  0.391652074984998  0.391652074984998  0.832596723702352
  0.001114389394063  0.459082587418762  0.459082587418762  0.760582905315251
  0.001123724788052  0.521456388841586  0.521456388841586  0.675400969108414
  0.001125239325244  0.625317024465420  0.625317024465420  0.466858905695743
  0.001126153271816  0.663792674452317  0.663792674452317  0.344613654237438
  0.001130286931124  0.691041039849830  0.691041039849830  0.211954151850184
  0.001134986534364  0.705290700745776  0.705290700745776  0.071624401449956
  0.000682336792711  0.123668676265799  0.000000000000000  0.992323565431490
  0.000945415816045  0.294077711446839  0.000000000000000  0.955781512496548
  0.001074429975386  0.469775384920765  0.000000000000000  0.882785980701182
  0.001129300086569  0.633456324113957  0.000000000000000  0.773778447257375
  0.000843688450090  0.059740486141813  0.202912875277752  0.977372722845310
  0.001075255720449  0.137576040847364  0.460262194248405  0.877058461865803
  0.001108577236864  0.339101652633629  0.503067399966204  0.794942299964208
  0.000956647532378  0.127167519143982  0.281760642244213  0.951020169374390
  0.001080663250717  0.269312074041351  0.433156129172016  0.860143461601762
  0.001126797131196  0.141978645260192  0.625616735858081  0.767102186220558
  0.001022568715358  0.067092846007383  0.379839521685916  0.922616110730809
  0.001108960267713  0.070577381832562  0.551750542142352  0.831017552413474
  0.001122790653436  0.278388847788215  0.602961915615919  0.747620610834086
  0.001032401847117  0.197957893891741  0.358960632958910  0.912118378409121
  0.001107249382284  0.208730706110327  0.534866643813548  0.818748536281022
  0.001121780048520  0.405512213787284  0.567499754607437  0.716591845467024
   total no. of   reducible points: 974; test:  1.00000000
  0.000110518923327  1.000000000000000  0.000000000000000  0.000000000000000
  0.000920523273809  0.707106781186547  0.707106781186547  0.000000000000000
  0.000913315978644  0.577350269189626  0.577350269189626  0.577350269189626
  0.000369042189802  0.037126364496571  0.037126364496571  0.998620681799919
  0.000560399092868  0.091400604122622  0.091400604122622  0.991610739722014
  0.000686529762928  0.153107785246991  0.153107785246991  0.976276606394685
  0.000772033855115  0.218092889166061  0.218092889166061  0.951247067480579
  0.000830154595889  0.283987453220018  0.283987453220018  0.915806886208668
  0.000868669255018  0.349117760096376  0.349117760096376  0.869616915181954
  0.000892707628585  0.412143146144431  0.412143146144431  0.812573722299916
  0.000906082023857  0.471899362714913  0.471899362714913  0.744729469632107
  0.000911977725494  0.527314545284234  0.527314545284234  0.666242253736104
  0.000912872013860  0.620947533244402  0.620947533244402  0.478380938076952
  0.000913071493569  0.656972271185729  0.656972271185729  0.369830866459426
  0.000915287378455  0.684178830907014  0.684178830907014  0.252583955700718
  0.000918743627432  0.701260433012363  0.701260433012363  0.128326186659723
  0.000517697731297  0.107238221547817  0.000000000000000  0.994233354821322
  0.000733114368210  0.258206895949697  0.000000000000000  0.966089643296119
  0.000846323283638  0.417275295530672  0.000000000000000  0.908780131681911
  0.000903112269425  0.570036691179250  0.000000000000000  0.821619237061433
  0.000648577845316  0.982798601826395  0.177177402261533  0.052106394770113
  0.000743503091098  0.962424923032623  0.247571646342629  0.111564095715648
  0.000799852789184  0.940200799412881  0.335461628906649  0.059058888532354
  0.000810173149747  0.932082204014320  0.317361524661198  0.174655167757863
  0.000848338957459  0.904367419939330  0.409026842708536  0.121723505109599
  0.000855629925731  0.891240756007475  0.385429115066922  0.239027847938172
  0.000880320867974  0.867643562846271  0.493222118485128  0.062662506241542
  0.000881104818243  0.858197998604162  0.478532067592243  0.185750519454734
  0.000885028234127  0.839675362404986  0.450742259315706  0.302946697352898
  0.000902134229904  0.816528856402219  0.563212302076210  0.126777480068428
  0.000901009167711  0.801546937078353  0.543430356969390  0.249411216236224
  0.000902269293843  0.777356306907035  0.512351848641987  0.364983226059765
  0.000915801617469  0.766162121390039  0.639427963474910  0.064245492242208
  0.000913157800319  0.755358414353351  0.626980550902439  0.190601822277923
  0.000910781357948  0.734430575755950  0.603116169309631  0.311227594714961
  0.000910576025897  0.704383718402177  0.569370249846844  0.423864478152234
   total no. of   reducible points:1202; test:  1.00000000
  0.000077771607433  1.000000000000000  0.000000000000000  0.000000000000000
  0.000755764641300  0.577350269189626  0.577350269189626  0.577350269189626
  0.000284163380609  0.032292906634139  0.032292906634139  0.998956623864238
  0.000437441912705  0.080367332714622  0.080367332714622  0.993520097262594
  0.000541717474087  0.135428996053165  0.135428996053165  0.981487633165117
  0.000614800089136  0.193896386111443  0.193896386111443  0.961669580940275
  0.000666439448580  0.253734371501127  0.253734371501127  0.933401166400522
  0.000702503935692  0.313525143475257  0.313525143475257  0.896328047546008
  0.000726851178925  0.372155833937534  0.372155833937534  0.850294108254619
  0.000742263753421  0.428680957519570  0.428680957519570  0.795276853253136
  0.000750954503584  0.482251012828299  0.482251012828299  0.731346649169981
  0.000754853505772  0.532067933356626  0.532067933356626  0.658640591360127
  0.000755408896977  0.617299819539427  0.617299819539427  0.487731345715221
  0.000755314717444  0.651067984912748  0.651067984912748  0.390155043595885
  0.000756476765329  0.677731525168736  0.677731525168736  0.285236672931301
  0.000758799180852  0.696310941064874  0.696310941064874  0.174075117999957
  0.000760826183203  0.705893500983175  0.705893500983175  0.058555363028785
  0.000402168044787  0.995554619409186  0.000000000000000  0.094185985013862
  0.000580487179395  0.973411590179421  0.000000000000000  0.229063039585986
  0.000679215195595  0.927569373238863  0.000000000000000  0.373650983980055
  0.000733674121129  0.856802242279510  0.000000000000000  0.515645147000147
  0.000758186630099  0.762349555371937  0.000000000000000  0.647165477620840
  0.000753825785980  0.570752290889222  0.438702803988950  0.694104943230444
  0.000748351724705  0.519646338840308  0.385890841476262  0.762270254565011
  0.000737176366111  0.464633753121535  0.330193737234385  0.821637128756598
  0.000718344889576  0.406390169755769  0.272542357356378  0.872105322408083
  0.000689581552982  0.345632946664309  0.213951023749525  0.913653558859526
  0.000648010580179  0.283139512105033  0.155592230978665  0.946373644151191
  0.000589755889659  0.219768202292533  0.098928789796861  0.970523071240677
  0.000509570884925  0.156469609865035  0.045986429106755  0.986611630545015
  0.000753690642891  0.602735667372129  0.337662514017343  0.722975616397235
  0.000747250596558  0.549603232025510  0.282230130972799  0.786309379645309
  0.000734301713228  0.492170775523457  0.224863234259254  0.840954489612314
  0.000713087158218  0.430942299859848  0.166622472345648  0.886862833757808
  0.000681702203211  0.366410818231367  0.108696490182217  0.924082347686118
  0.000638094114560  0.299018905775844  0.052519897841201  0.952800794667682
  0.000755038137792  0.626872401314500  0.229752365755002  0.744476220506856
  0.000747864664014  0.570732414483461  0.172308060709380  0.802853936449496
  0.000733591872060  0.509636090196037  0.114023846539051  0.852801042441985
  0.000711012052766  0.443872993831246  0.056115220958825  0.894330949550573
  0.000757136397869  0.641997847108239  0.116417442314087  0.757816431224233
  0.000748990832908  0.581721806180261  0.057975895314452  0.811319009870262
   total no. of   reducible points:1454; test:  1.00000000
  qrot: 

              1        2        3      
    1    1.0000   0.0000   0.0000
    2    0.0000   1.0000   0.0000
    3    0.0000   0.0000   1.0000
  me                     0   done genpts
  me                     6   done genpts
  me                     1   done genpts
  me                     2   done genpts
  me                     3   done genpts
  me                     4   done genpts
  me                     5   done genpts
  me                     7   done genpts
  me                     0   done uprt
  me                     1   done uprt
  me                     2   done uprt
  me                     3   done uprt
  me                     4   done uprt
  me                     5   done uprt
  me                     6   done uprt
  me                     7   done uprt
  me                     0  done mem
  me                     1  done mem
  me                     2  done mem
  me                     3  done mem
  me                     4  done mem
  me                     5  done mem
  me                     6  done mem
  me                     7  done mem
  dftinpanae: itol2e                     8  iaoacc                    14  tol_rho    1.0000000000000000E-010

            General Information
            -------------------
          SCF calculation type: DFT
          Wavefunction type:  spin polarized.
          No. of atoms     :     1
          No. of electrons :     6
           Alpha electrons :     4
            Beta electrons :     2
          Charge           :     0
          Spin multiplicity:     3
          Use of symmetry is: off; symmetry adaption is: off
          Maximum number of iterations:  50
          AO basis - number of functions:    55
                     number of shells:    14
          Convergence on energy requested:  1.00D-06
          Convergence on density requested:  1.00D-05
          Convergence on gradient requested:  5.00D-04

              XC Information
              --------------
                     Hartree-Fock (Exact) Exchange  1.000          
                     LC-wPBE(h)Exchange Functional  1.000          
            Perdew 1991 LDA Correlation Functional  1.000 local    
           PerdewBurkeErnz. Correlation Functional  1.000 non-local

           Range-Separation Parameters        
           ---------------------------
           Alpha           :  0.00
           Beta            :  1.00
           Gamma           :  0.40
           Short-Range HF  :     F

             Grid Information
             ----------------
          Grid used for XC integration:  xfine     
          Radial quadrature: Mura-Knowles        
          Angular quadrature: Lebedev. 
          Tag              B.-S. Rad. Rad. Pts. Rad. Cut. Ang. Pts.
          ---              ---------- --------- --------- ---------
          C                   0.70      100          10.0      1454
          Grid pruning is: on 
          Number of quadrature shells:   100
          Spatial weights used:  Erf1

          Convergence Information
          -----------------------
          Convergence aids based upon iterative change in 
          total energy or number of iterations. 
          Levelshifting, if invoked, occurs when the 
          HOMO/LUMO gap drops below (HL_TOL):  1.00D-02
          DIIS, if invoked, will attempt to extrapolate 
          using up to (NFOCK): 10 stored Fock matrices.

                    Damping( 0%)  Levelshifting(0.5)       DIIS
                  --------------- ------------------- ---------------
          dE  on:    start            ASAP                start   
          dE off:    2 iters         50 iters            50 iters 


      Screening Tolerance Information
      -------------------------------
          Density screening/tol_rho:  1.00D-10
          AO Gaussian exp screening on grid/accAOfunc:  14
          CD Gaussian exp screening on grid/accCDfunc:  20
          XC Gaussian exp screening on grid/accXCfunc:  20
          Schwarz screening/accCoul:  1.00D-08



                         Geometry "geometry" -> "geometry"
                         ---------------------------------

 Output coordinates in angstroms (scale by  1.889725989 to convert to a.u.)

  No.       Tag          Charge          X              Y              Z
 ---- ---------------- ---------- -------------- -------------- --------------
    1 C                    6.0000     0.00000000     0.00000000     0.00000000

      Atomic Mass 
      ----------- 

      C                 12.000000


 Effective nuclear repulsion energy (a.u.)       0.0000000000

            Nuclear Dipole moment (a.u.) 
            ----------------------------
        X                 Y               Z
 ---------------- ---------------- ----------------
     0.0000000000     0.0000000000     0.0000000000

  
  CAM type calculations without CDFIT are
  only available with the direct option.
  Forcing Direct SCF
  


     <<<<<<    Before call to DFT_SCF.    >>>>>>
     <<<<<< date:  Apr 24  time: 11:12:11 >>>>>>





 Setting tolerance for linear dependence to 1.00D-05


 Setting tolerance for linear dependence to 1.00D-05

 Setting tolerance for linear dependence to 1.00D-05

 Setting tolerance for linear dependence to 1.00D-05
 Setting tolerance for linear dependence to 1.00D-05
 Setting tolerance for linear dependence to 1.00D-05
 Setting tolerance for linear dependence to 1.00D-05
 Setting tolerance for linear dependence to 1.00D-05
  lindep tolerance =    1.0000000000000001E-005
  lindep tolerance =    1.0000000000000001E-005
  lindep tolerance =    1.0000000000000001E-005
  lindep tolerance =    1.0000000000000001E-005
  lindep tolerance =    1.0000000000000001E-005
  lindep tolerance =    1.0000000000000001E-005
  lindep tolerance =    1.0000000000000001E-005
  lindep tolerance =    1.0000000000000001E-005


     <<<<<<    Before 3c-2e initialize.   >>>>>>
     <<<<<< date:  Apr 24  time: 11:12:11 >>>>>>


 Setting fock-build task_bf   :      -1
                    maxquartet:   10000
                    maxeri    :  129600
                    maxscr    :       0
                    intacc    : 0.0D+00
                    denscreen : T
                    dentol    : 1.0D-06


      Superposition of Atomic Density Guess
      -------------------------------------

 Sum of atomic energies:         -37.67066074

      Non-variational initial energy
      ------------------------------

 Total energy =     -37.314867
 1-e energy   =     -50.417403
 2-e energy   =      13.102536
 HOMO         =      -0.079421
 LUMO         =      -0.079421


 Setting fock-build task_bf   :      -1
                    maxquartet:   10000
                    maxeri    :  129600
                    maxscr    :       0
                    intacc    : 0.0D+00
                    denscreen : T
                    dentol    : 1.0D-06


 Wrote molecular orbitals to ./c.movecs

  WARNING: movecs_in_org=atomic not equal to movecs_in=./c.movecs
   Time after variat. SCF:      0.2

 Setting fock-build task_bf   :      -1
                    maxquartet:   10000
                    maxeri    :  129600
                    maxscr    :       0
                    intacc    : 0.0D+00
                    denscreen : T
                    dentol    : 1.0D-06

   Time prior to 1st pass:      0.2


     <<<<<<      Before SCF iter loop.    >>>>>>
     <<<<<< date:  Apr 24  time: 11:12:11 >>>>>>

           DAMPING=T LEVELSHIFTING=F DIISING=T
          itol2e= 8 iAOacc=12 iXCacc=20


     <<<<<<            calling 1-e int    >>>>>>
     <<<<<< date:  Apr 24  time: 11:12:11 >>>>>>

    Kinetic Matrix Time:          0.0s

           Kinetic energy =     36.962176696628

    Potential Matrix Time:          0.0s


     <<<<<<    Before call to GETVXC.     >>>>>>
     <<<<<< date:  Apr 24  time: 11:12:11 >>>>>>



     <<<<<<    Before call to fock_2e.    >>>>>>
     <<<<<< date:  Apr 24  time: 11:12:11 >>>>>>



     <<<<<<     After call to fock_2e.    >>>>>>
     <<<<<< date:  Apr 24  time: 11:12:11 >>>>>>

    Fock_2e Build Time:          0.1s
  *** grid_quadv0:                    calc_type:                    1
  *** grid_quadv0:                    grid_written: F
  *** grid_quadv0:                    grad: T
  *** grid_quadv0:                    kske: F
  *** grid_quadv0:                    kslap: F
  *** grid_quadv0:                    do_scf: T
  *** grid_quadv0:                    fde_option:                    0
  *** grid_quadv0:                    n_per_rec:                 3070
  *** grid_quadv0:                    calc_type:                    1
  *** grid_quadv0:                    grid_written: F
  *** grid_quadv0:                    calc_type:                    1
  *** grid_quadv0:                    grid_written: F
  *** grid_quadv0:                    grad: T
  *** grid_quadv0:                    kske: F
  *** grid_quadv0:                    calc_type:                    1
  *** grid_quadv0:                    grid_written: F
  *** grid_quadv0:                    grad: T
  *** grid_quadv0:                    kske: F
  *** grid_quadv0:                    kslap: F
  *** grid_quadv0:                    do_scf: T
  *** grid_quadv0:                    fde_option:                    0
  *** grid_quadv0:                    n_per_rec:                 3070
  *** grid_quadv0:                    calc_type:                    1
  *** grid_quadv0:                    grid_written: F
  *** grid_quadv0:                    grad: T
  *** grid_quadv0:                    kske: F
  *** grid_quadv0:                    kslap: F
  *** grid_quadv0:                    do_scf: T
  *** grid_quadv0:                    fde_option:                    0
  *** grid_quadv0:                    n_per_rec:                 3070
  *** grid_quadv0:                    calc_type:                    1
  *** grid_quadv0:                    grid_written: F
  *** grid_quadv0:                    grad: T
  *** grid_quadv0:                    kske: F
  *** grid_quadv0:                    kslap: F
  *** grid_quadv0:                    do_scf: T
  *** grid_quadv0:                    fde_option:                    0
  *** grid_quadv0:                    n_per_rec:                 3070
  *** grid_quadv0:                    calc_type:                    1
  *** grid_quadv0:                    grid_written: F
  *** grid_quadv0:                    grad: T
  *** grid_quadv0:                    kske: F
  *** grid_quadv0:                    kslap: F
  *** grid_quadv0:                    do_scf: T
  *** grid_quadv0:                    fde_option:                    0
  *** grid_quadv0:                    n_per_rec:                 3070
  *** grid_quadv0:                    calc_type:                    1
  *** grid_quadv0:                    grid_written: F
  *** grid_quadv0:                    grad: T
  *** grid_quadv0:                    kske: F
  *** grid_quadv0:                    kslap: F
  *** grid_quadv0:                    do_scf: T
  *** grid_quadv0:                    fde_option:                    0
  *** grid_quadv0:                    n_per_rec:                 3070
  *** grid_quadv0:                    grad: T
  *** grid_quadv0:                    kske: F
  *** grid_quadv0:                    kslap: F
  *** grid_quadv0:                    do_scf: T
  *** grid_quadv0:                    fde_option:                    0
  *** grid_quadv0:                    n_per_rec:                 3070
  *** grid_quadv0:                    kslap: F
  *** grid_quadv0:                    do_scf: T
  *** grid_quadv0:                    fde_option:                    0
  *** grid_quadv0:                    n_per_rec:                 3070
   0: nuse=   8 avail= 12500000Mb on .
   3: nuse=   8 avail= 12500000Mb on .
   4: nuse=   8 avail= 12500000Mb on .
   5: nuse=   8 avail= 12500000Mb on .
   6: nuse=   8 avail= 12500000Mb on .
   7: nuse=   8 avail= 12500000Mb on .
   1: nuse=   8 avail= 12500000Mb on .
   2: nuse=   8 avail= 12500000Mb on .
 l_cube input   11.00

  atom type   l_cube   no. cubes   segmts   rad   sub
 ----------- -------- ----------- -------- ----- -----
        1     12.67        34         3      19     8

 Grid_pts file          = ./c.gridpts.0
 Record size in doubles =  12289        No. of grid_pts per rec  =   3070
 Max. records in memory =      8        Max. recs in file   = 126656358

 me   0 NQTOTC NQ/cube   14489     762
 me   1 NQTOTC NQ/cube    7819    7819
 me   2 NQTOTC NQ/cube    7267    7267
 me   3 NQTOTC NQ/cube    8179    1635
 me   4 NQTOTC NQ/cube    8510    4255
 me   5 NQTOTC NQ/cube    8047    4023
 me   6 NQTOTC NQ/cube    7819    7819
 me   7 NQTOTC NQ/cube    8714    2904

 XC quadr. integrated density :       6.000000 npts:    70641 nctrs:        1

    Fock_xc Build Time:          0.1s


     <<<<<<    Before call to GETVCOUL.   >>>>>>
     <<<<<< date:  Apr 24  time: 11:12:11 >>>>>>



     <<<<<<    End of parallel region.    >>>>>>
     <<<<<< date:  Apr 24  time: 11:12:11 >>>>>>

    Total Fock Matrix Build Time:          0.2s
 Etnew, Ecore, Ecoul, Exc(1), Exc(2), Totsic:   -37.758176967772428       -49.551891493203676        16.800722580636265       -5.0070080552050173        0.0000000000000000        0.0000000000000000     
  delta =   -37.758176967772428     


         Total DFT energy =      -37.758176967772
      One electron energy =      -49.551891493204
           Coulomb energy =       16.800722580636
    Exchange-Corr. energy =       -5.007008055205
 Nuclear repulsion energy =        0.000000000000

 Numeric. integr. density =        5.999999995285

     Total iterative time =      1.3s


  delta =   -37.758176967772428     
  delta =   -37.758176967772428     
  delta =   -37.758176967772428     
  delta =   -37.758176967772428     
  delta =   -37.758176967772428     
  delta =   -37.758176967772428     
  delta =   -37.758176967772428     


     <<<<<<        calling diis driver    >>>>>>
     <<<<<< date:  Apr 24  time: 11:12:11 >>>>>>

 nhist                     1  pulay matrix 
   0.0000E+00
  -1.0000E+00   1.2352E-01


     <<<<<<         called diis driver    >>>>>>
     <<<<<< date:  Apr 24  time: 11:12:11 >>>>>>


 global array: fock transf[1:55,1:55],  handle: -940 

            1           2           3           4           5           6  
       ----------- ----------- ----------- ----------- ----------- -----------
   1       3.80759    -0.00000     0.00000     0.00000    -2.75268     0.00000
   2      -0.00000     6.64830    -0.00017    -0.00016    -0.00000    -0.46982
   3       0.00000    -0.00017     6.64714    -0.00095     0.00000     0.09663
   4       0.00000    -0.00016    -0.00095     6.64772     0.00000     0.90556
   5      -2.75268    -0.00000     0.00000     0.00000     4.98895    -0.00000
   6       0.00000    -0.46982     0.09663     0.90556    -0.00000     1.39237
   7      -0.00000     0.39139    -0.89875     0.29835     0.00000     0.00118
   8       0.00000    -0.82176    -0.48360    -0.37573    -0.00000     0.00149
   9       0.39778     0.00000     0.00000    -0.00000    -1.00047    -0.00000
  10       0.00000     0.00054    -0.00011     0.00018     0.00000    -0.00026
  11       0.00000     0.00015     0.00019    -0.00028     0.00000    -0.00027
  12       0.00000     0.00026    -0.00024     0.00021    -0.00000     0.00016
  13       0.00000    -0.00052     0.00002     0.00014    -0.00000    -0.00014
  14       0.67446     0.00000    -0.00000     0.00000    -0.62234     0.00000
  15       0.00000    -0.11231     0.00624     0.02366     0.00000    -0.25088
  16      -0.00000     0.01489    -0.07312     0.08659    -0.00000    -0.21761
  17      -0.00000    -0.02008    -0.08774    -0.07093     0.00000     0.21281
  18       0.00053     0.00000    -0.00000     0.00000    -0.00035    -0.00000
  19      -0.00076     0.00000     0.00000     0.00000     0.00051    -0.00000
  20      -0.00042     0.00000     0.00000     0.00000     0.00028     0.00000
  21      -0.00000     0.00103     0.00088     0.00106     0.00000     0.00038
  22       0.00007     0.00000    -0.00000     0.00000    -0.00005     0.00000
  23       0.00044     0.00000    -0.00000    -0.00000    -0.00030    -0.00000
  24       0.00000    -0.00039     0.00183     0.00059     0.00000     0.00062
  25      -0.00000    -0.00061     0.00102     0.00105    -0.00000     0.00075
  26       0.00000     0.00038     0.00014    -0.00056     0.00000    -0.00039
  27      -0.00042     0.00000    -0.00000     0.00000     0.00093    -0.00000
  28       0.00038     0.00000    -0.00000     0.00000    -0.00085     0.00000
  29       0.00057     0.00000    -0.00000     0.00000    -0.00126    -0.00000
  30       0.00000    -0.01203    -0.06758     0.02689     0.00000     0.15189
  31       0.00000     0.01647    -0.02837    -0.06526     0.00000    -0.45494
  32      -0.00000    -0.06941     0.00505    -0.01901    -0.00000     0.10336
  33      -0.00000     0.01412    -0.29187     0.11610     0.00000     0.14115
  34       0.00000    -0.10785     0.10794     0.27636    -0.00000     0.61262
  35      -0.00000     0.29484     0.05408     0.09661    -0.00000    -0.09212
  36      -0.12859    -0.00000    -0.00000    -0.00000     0.45287    -0.00000
  37       0.00025    -0.00000     0.00000    -0.00000    -0.00056    -0.00000
  38       0.00025     0.00000    -0.00000     0.00000    -0.00056    -0.00000
  39       0.00026    -0.00000    -0.00000     0.00000    -0.00002    -0.00000
  40       0.00025     0.00000     0.00000    -0.00000    -0.00002    -0.00000
  41      -0.00064     0.00000    -0.00000     0.00000     0.00004    -0.00000
  42       0.00000     0.02326     0.06081     0.00809    -0.00000     0.00236
  43      -0.00000    -0.05652     0.02386    -0.01792     0.00000     0.02079
  44      -0.00000    -0.01885     0.00181     0.06158    -0.00000     0.10634
  45      -0.00033     0.00000    -0.00000    -0.00000     0.00002    -0.00000
  46       0.00003     0.00000    -0.00000     0.00000    -0.00000     0.00000
  47      -0.01269    -0.00000     0.00000     0.00000     0.31246     0.00000
  48      -0.00000    -0.03480     0.00860    -0.12370    -0.00000    -0.10848
  49      -0.00000    -0.00355    -0.12713    -0.00420    -0.00000    -0.01787
  50      -0.00000     0.12509    -0.00190    -0.03501     0.00000    -0.10283
  51       0.18246     0.00000    -0.00000    -0.00000    -0.36260    -0.00000
  52       0.00000     0.00222     0.05703     0.02870     0.00000     0.01795
  53       0.00000     0.01607     0.03207    -0.06098    -0.00000    -0.03262
  54       0.00000    -0.06900     0.01049    -0.01251    -0.00000     0.01183
  55      -0.09517    -0.00000    -0.00000    -0.00000     0.14893     0.00000

            7           8           9          10          11          12  
       ----------- ----------- ----------- ----------- ----------- -----------
   1      -0.00000     0.00000     0.39778     0.00000     0.00000     0.00000
   2       0.39139    -0.82176     0.00000     0.00054     0.00015     0.00026
   3      -0.89875    -0.48360     0.00000    -0.00011     0.00019    -0.00024
   4       0.29835    -0.37573    -0.00000     0.00018    -0.00028     0.00021
   5       0.00000    -0.00000    -1.00047     0.00000     0.00000    -0.00000
   6       0.00118     0.00149    -0.00000    -0.00026    -0.00027     0.00016
   7       1.39249    -0.00136    -0.00000     0.00050    -0.00012    -0.00005
   8      -0.00136     1.39167     0.00000    -0.00024    -0.00006    -0.00044
   9      -0.00000     0.00000     0.80113     0.00000    -0.00000     0.00000
  10       0.00050    -0.00024     0.00000     2.49471     0.00014    -0.00030
  11      -0.00012    -0.00006    -0.00000     0.00014     2.49323     0.00081
  12      -0.00005    -0.00044     0.00000    -0.00030     0.00081     2.49529
  13       0.00011     0.00055    -0.00000     0.00031     0.00065     0.00134
  14      -0.00000    -0.00000     1.25899     0.00000    -0.00000     0.00000
  15       0.14098    -0.26880    -0.00000     0.00156     0.00045     0.00066
  16      -0.32726     0.03081     0.00000    -0.00082     0.00056     0.00038
  17      -0.16850    -0.28718    -0.00000     0.00150     0.00009    -0.00035
  18      -0.00000     0.00000     0.00049    -0.00000    -0.00000    -0.00000
  19      -0.00000     0.00000    -0.00070    -0.00000    -0.00000    -0.00000
  20      -0.00000    -0.00000    -0.00038    -0.00000     0.00000     0.00000
  21      -0.00003    -0.00118     0.00000     0.98367     0.00009    -0.00037
  22       0.00000    -0.00000     0.00007    -0.00000     0.00000    -0.00000
  23       0.00000    -0.00000     0.00041    -0.00000    -0.00000    -0.00000
  24      -0.00094    -0.00047    -0.00000     0.00045     0.14122    -0.95348
  25      -0.00057    -0.00027     0.00000     0.00034     0.08426     0.21094
  26      -0.00006    -0.00011    -0.00000    -0.00000     0.96896     0.12166
  27      -0.00000     0.00000     0.00009    -0.00000    -0.00000    -0.00000
  28      -0.00000    -0.00000    -0.00008    -0.00000     0.00000     0.00000
  29       0.00000     0.00000    -0.00012     0.00000    -0.00000     0.00000
  30       0.41631     0.21125    -0.00000    -0.00035    -0.00064     0.00052
  31       0.08246     0.16333     0.00000    -0.00078     0.00034     0.00065
  32      -0.24634     0.41059     0.00000    -0.00189    -0.00018    -0.00064
  33       0.59632     0.16773     0.00000     0.00012    -0.00072     0.00169
  34      -0.10953    -0.12957    -0.00000     0.00015    -0.00045    -0.00025
  35       0.18985    -0.59915     0.00000     0.00084     0.00018     0.00023
  36      -0.00000     0.00000    -0.39528     0.00000     0.00000     0.00000
  37       0.00000     0.00000    -0.00005    -0.00000    -0.00000     0.00000
  38       0.00000    -0.00000    -0.00005     0.00000    -0.00000     0.00000
  39      -0.00000     0.00000    -0.00013     0.00000    -0.00000    -0.00000
  40       0.00000    -0.00000    -0.00012     0.00000    -0.00000    -0.00000
  41       0.00000     0.00000     0.00032    -0.00000    -0.00000     0.00000
  42      -0.07035    -0.08343    -0.00000     0.00091     0.00040    -0.00127
  43      -0.08069     0.06847    -0.00000    -0.00048     0.00006    -0.00057
  44       0.01630    -0.01293    -0.00000     0.00053    -0.00032    -0.00030
  45       0.00000    -0.00000     0.00016     0.00000    -0.00000     0.00000
  46       0.00000    -0.00000    -0.00001     0.00000     0.00000     0.00000
  47      -0.00000    -0.00000    -0.08510     0.00000    -0.00000    -0.00000
  48      -0.06506     0.08149     0.00000    -0.00025     0.00048    -0.00088
  49       0.12785     0.07675     0.00000     0.00059    -0.00029     0.00014
  50       0.04558    -0.10018    -0.00000     0.00083     0.00039     0.00029
  51      -0.00000    -0.00000     0.13921     0.00000    -0.00000    -0.00000
  52      -0.02405    -0.02361    -0.00000    -0.00013     0.00010    -0.00023
  53      -0.02199    -0.00297     0.00000    -0.00015     0.00077    -0.00064
  54      -0.02156     0.03054     0.00000    -0.00108    -0.00012    -0.00069
  55      -0.00000     0.00000    -0.08043     0.00000     0.00000     0.00000

           13          14          15          16          17          18  
       ----------- ----------- ----------- ----------- ----------- -----------
   1       0.00000     0.67446     0.00000    -0.00000    -0.00000     0.00053
   2      -0.00052     0.00000    -0.11231     0.01489    -0.02008     0.00000
   3       0.00002    -0.00000     0.00624    -0.07312    -0.08774    -0.00000
   4       0.00014     0.00000     0.02366     0.08659    -0.07093     0.00000
   5      -0.00000    -0.62234     0.00000    -0.00000     0.00000    -0.00035
   6      -0.00014     0.00000    -0.25088    -0.21761     0.21281    -0.00000
   7       0.00011    -0.00000     0.14098    -0.32726    -0.16850    -0.00000
   8       0.00055    -0.00000    -0.26880     0.03081    -0.28718     0.00000
   9      -0.00000     1.25899    -0.00000     0.00000    -0.00000     0.00049
  10       0.00031     0.00000     0.00156    -0.00082     0.00150    -0.00000
  11       0.00065    -0.00000     0.00045     0.00056     0.00009    -0.00000
  12       0.00134     0.00000     0.00066     0.00038    -0.00035    -0.00000
  13       2.49434     0.00000    -0.00014     0.00055     0.00024     0.00000
  14       0.00000     5.81407     0.00000    -0.00000     0.00000     0.00202
  15      -0.00014     0.00000     2.34850     0.00027     0.00073     0.00000
  16       0.00055    -0.00000     0.00027     2.34918    -0.00037    -0.00000
  17       0.00024     0.00000     0.00073    -0.00037     2.34773     0.00000
  18       0.00000     0.00202     0.00000    -0.00000     0.00000     1.89445
  19      -0.00000    -0.00289    -0.00000    -0.00000     0.00000    -0.00103
  20      -0.00000    -0.00158     0.00000     0.00000     0.00000    -0.00119
  21       0.00042     0.00000     0.00102    -0.00050     0.00069     0.00000
  22      -0.00000     0.00027     0.00000     0.00000    -0.00000     0.00050
  23       0.00000     0.00169    -0.00000     0.00000     0.00000    -0.00040
  24       0.19607     0.00000    -0.00048    -0.00014    -0.00023     0.00000
  25       0.95733     0.00000    -0.00000     0.00054    -0.00024    -0.00000
  26      -0.11088     0.00000     0.00030     0.00020     0.00005     0.00000
  27       0.00000    -0.00263    -0.00000    -0.00000    -0.00000     0.49943
  28      -0.00000     0.00240     0.00000    -0.00000    -0.00000     0.54917
  29       0.00000     0.00358     0.00000     0.00000     0.00000     0.81241
  30      -0.00045    -0.00000    -0.13631    -0.61382    -0.36974    -0.00000
  31      -0.00085    -0.00000     0.30882     0.29035    -0.59253    -0.00000
  32       0.00083     0.00000    -0.64561     0.26718    -0.20545    -0.00000
  33      -0.00019    -0.00000    -0.01083     0.60684     0.32518     0.00000
  34       0.00193     0.00000     0.36975     0.27851    -0.51135    -0.00000
  35      -0.00080    -0.00000    -0.58270     0.16779    -0.33256    -0.00000
  36       0.00000    -0.11396     0.00000    -0.00000    -0.00000    -0.00011
  37       0.00000     0.00157    -0.00000     0.00000     0.00000     0.00158
  38       0.00000     0.00159    -0.00000     0.00000    -0.00000     0.00092
  39       0.00000    -0.00143    -0.00000    -0.00000    -0.00000     0.14692
  40       0.00000    -0.00139    -0.00000     0.00000     0.00000    -0.16519
  41      -0.00000     0.00353     0.00000     0.00000     0.00000     0.15646
  42       0.00092    -0.00000    -0.01731    -0.02738    -0.05095    -0.00000
  43       0.00061     0.00000     0.05031    -0.03417     0.00295     0.00000
  44       0.00131     0.00000     0.02916     0.04065    -0.03320     0.00000
  45       0.00000     0.00179    -0.00000     0.00000    -0.00000    -0.00038
  46      -0.00000    -0.00016    -0.00000     0.00000    -0.00000     0.00007
  47      -0.00000     1.20943    -0.00000     0.00000    -0.00000     0.00010
  48       0.00021    -0.00000     0.00962    -0.10944     0.08381     0.00000
  49       0.00043     0.00000    -0.00504     0.08250     0.11096     0.00000
  50      -0.00108     0.00000    -0.13818    -0.00923     0.00137     0.00000
  51      -0.00000    -0.00641     0.00000    -0.00000    -0.00000    -0.00211
  52       0.00014     0.00000     0.00616    -0.01219    -0.05863     0.00000
  53      -0.00062     0.00000    -0.02138    -0.05174     0.00970     0.00000
  54       0.00107    -0.00000     0.05408    -0.02075     0.01098     0.00000
  55      -0.00000    -0.12360    -0.00000    -0.00000    -0.00000    -0.00035

           19          20          21          22          23          24  
       ----------- ----------- ----------- ----------- ----------- -----------
   1      -0.00076    -0.00042    -0.00000     0.00007     0.00044     0.00000
   2       0.00000     0.00000     0.00103     0.00000     0.00000    -0.00039
   3       0.00000     0.00000     0.00088    -0.00000    -0.00000     0.00183
   4       0.00000     0.00000     0.00106     0.00000    -0.00000     0.00059
   5       0.00051     0.00028     0.00000    -0.00005    -0.00030     0.00000
   6      -0.00000     0.00000     0.00038     0.00000    -0.00000     0.00062
   7      -0.00000    -0.00000    -0.00003     0.00000     0.00000    -0.00094
   8       0.00000    -0.00000    -0.00118    -0.00000    -0.00000    -0.00047
   9      -0.00070    -0.00038     0.00000     0.00007     0.00041    -0.00000
  10      -0.00000    -0.00000     0.98367    -0.00000    -0.00000     0.00045
  11      -0.00000     0.00000     0.00009     0.00000    -0.00000     0.14122
  12      -0.00000     0.00000    -0.00037    -0.00000    -0.00000    -0.95348
  13      -0.00000    -0.00000     0.00042    -0.00000     0.00000     0.19607
  14      -0.00289    -0.00158     0.00000     0.00027     0.00169     0.00000
  15      -0.00000     0.00000     0.00102     0.00000    -0.00000    -0.00048
  16      -0.00000     0.00000    -0.00050     0.00000     0.00000    -0.00014
  17       0.00000     0.00000     0.00069    -0.00000     0.00000    -0.00023
  18      -0.00103    -0.00119     0.00000     0.00050    -0.00040     0.00000
  19       1.89549    -0.00011     0.00000     0.00024    -0.00077    -0.00000
  20      -0.00011     1.89408     0.00000    -0.00054    -0.00101    -0.00000
  21       0.00000     0.00000     1.63464    -0.00000     0.00000     0.00087
  22       0.00024    -0.00054    -0.00000     1.89249    -0.00003    -0.00000
  23      -0.00077    -0.00101     0.00000    -0.00003     1.89479     0.00000
  24      -0.00000    -0.00000     0.00087    -0.00000     0.00000     1.63476
  25      -0.00000    -0.00000     0.00062    -0.00000     0.00000    -0.00020
  26       0.00000    -0.00000     0.00009    -0.00000     0.00000    -0.00080
  27       0.86277     0.46745     0.00000    -0.00039    -0.00042     0.00000
  28      -0.68055     0.66718     0.00000     0.00041     0.00163     0.00000
  29      -0.07476    -0.73931    -0.00000    -0.00030     0.00162    -0.00000
  30      -0.00000    -0.00000     0.00021    -0.00000     0.00000    -0.00027
  31      -0.00000    -0.00000     0.00010     0.00000    -0.00000     0.00033
  32      -0.00000    -0.00000    -0.00140     0.00000    -0.00000     0.00102
  33       0.00000     0.00000     0.00003    -0.00000     0.00000    -0.00127
  34      -0.00000    -0.00000     0.00023     0.00000     0.00000     0.00058
  35      -0.00000    -0.00000     0.00070    -0.00000    -0.00000    -0.00010
  36       0.00016     0.00009    -0.00000    -0.00001    -0.00009     0.00000
  37      -0.00084    -0.00039     0.00000    -0.64935     0.88751    -0.00000
  38      -0.00129     0.00006    -0.00000     0.88842     0.64924    -0.00000
  39       0.22776     0.00349     0.00000     0.00007     0.00018     0.00000
  40       0.10913    -0.18513    -0.00000     0.00005     0.00028    -0.00000
  41      -0.09675    -0.19785    -0.00000    -0.00006    -0.00055    -0.00000
  42      -0.00000    -0.00000     0.00018    -0.00000    -0.00000     0.00043
  43      -0.00000     0.00000    -0.00074     0.00000    -0.00000     0.00071
  44       0.00000    -0.00000     0.00005     0.00000    -0.00000    -0.00010
  45       0.00048     0.00021     0.00000     0.06654     0.26268    -0.00000
  46      -0.00002    -0.00004    -0.00000     0.26284    -0.06660     0.00000
  47      -0.00014    -0.00008     0.00000     0.00001     0.00008     0.00000
  48       0.00000     0.00000    -0.00030     0.00000     0.00000     0.00061
  49       0.00000     0.00000     0.00031     0.00000    -0.00000    -0.00025
  50      -0.00000    -0.00000     0.00063    -0.00000    -0.00000    -0.00035
  51       0.00303     0.00165     0.00000    -0.00028    -0.00177    -0.00000
  52      -0.00000    -0.00000    -0.00184     0.00000    -0.00000    -0.00198
  53      -0.00000    -0.00000     0.00010    -0.00000    -0.00000     0.00073
  54       0.00000     0.00000    -0.00071     0.00000    -0.00000     0.00090
  55       0.00050     0.00027     0.00000    -0.00005    -0.00029     0.00000

           25          26          27          28          29          30  
       ----------- ----------- ----------- ----------- ----------- -----------
   1      -0.00000     0.00000    -0.00042     0.00038     0.00057     0.00000
   2      -0.00061     0.00038     0.00000     0.00000     0.00000    -0.01203
   3       0.00102     0.00014    -0.00000    -0.00000    -0.00000    -0.06758
   4       0.00105    -0.00056     0.00000     0.00000     0.00000     0.02689
   5      -0.00000     0.00000     0.00093    -0.00085    -0.00126     0.00000
   6       0.00075    -0.00039    -0.00000     0.00000    -0.00000     0.15189
   7      -0.00057    -0.00006    -0.00000    -0.00000     0.00000     0.41631
   8      -0.00027    -0.00011     0.00000    -0.00000     0.00000     0.21125
   9       0.00000    -0.00000     0.00009    -0.00008    -0.00012    -0.00000
  10       0.00034    -0.00000    -0.00000    -0.00000     0.00000    -0.00035
  11       0.08426     0.96896    -0.00000     0.00000    -0.00000    -0.00064
  12       0.21094     0.12166    -0.00000     0.00000     0.00000     0.00052
  13       0.95733    -0.11088     0.00000    -0.00000     0.00000    -0.00045
  14       0.00000     0.00000    -0.00263     0.00240     0.00358    -0.00000
  15      -0.00000     0.00030    -0.00000     0.00000     0.00000    -0.13631
  16       0.00054     0.00020    -0.00000    -0.00000     0.00000    -0.61382
  17      -0.00024     0.00005    -0.00000    -0.00000     0.00000    -0.36974
  18      -0.00000     0.00000     0.49943     0.54917     0.81241    -0.00000
  19      -0.00000     0.00000     0.86277    -0.68055    -0.07476    -0.00000
  20      -0.00000    -0.00000     0.46745     0.66718    -0.73931    -0.00000
  21       0.00062     0.00009     0.00000     0.00000    -0.00000     0.00021
  22      -0.00000    -0.00000    -0.00039     0.00041    -0.00030    -0.00000
  23       0.00000     0.00000    -0.00042     0.00163     0.00162     0.00000
  24      -0.00020    -0.00080     0.00000     0.00000    -0.00000    -0.00027
  25       1.63483     0.00044     0.00000    -0.00000    -0.00000     0.00011
  26       0.00044     1.63210     0.00000    -0.00000     0.00000    -0.00117
  27       0.00000     0.00000     1.56739    -0.00105    -0.00075    -0.00000
  28      -0.00000    -0.00000    -0.00105     1.56784     0.00074    -0.00000
  29      -0.00000     0.00000    -0.00075     0.00074     1.56868     0.00000
  30       0.00011    -0.00117    -0.00000    -0.00000     0.00000     1.62708
  31       0.00026     0.00074    -0.00000     0.00000     0.00000    -0.00037
  32       0.00075    -0.00037    -0.00000    -0.00000    -0.00000     0.00061
  33       0.00005    -0.00010     0.00000     0.00000     0.00000     0.12773
  34       0.00149    -0.00035     0.00000    -0.00000    -0.00000     0.00851
  35      -0.00042     0.00015     0.00000    -0.00000    -0.00000    -0.02531
  36       0.00000     0.00000    -0.00182     0.00166     0.00248    -0.00000
  37       0.00000     0.00000    -0.00081     0.00013     0.00026     0.00000
  38       0.00000     0.00000    -0.00053    -0.00000     0.00075    -0.00000
  39       0.00000     0.00000     0.59506    -0.15873     0.21832    -0.00000
  40       0.00000    -0.00000    -0.16298    -0.63256    -0.01254    -0.00000
  41      -0.00000    -0.00000    -0.21505     0.04436     0.61660    -0.00000
  42      -0.00016     0.00016    -0.00000     0.00000    -0.00000    -0.17700
  43       0.00054    -0.00014    -0.00000     0.00000    -0.00000    -0.06132
  44       0.00081    -0.00036     0.00000    -0.00000     0.00000     0.07794
  45      -0.00000     0.00000    -0.00061     0.00005     0.00049     0.00000
  46      -0.00000    -0.00000     0.00019    -0.00007     0.00019    -0.00000
  47      -0.00000     0.00000    -0.00111     0.00101     0.00150    -0.00000
  48      -0.00005     0.00028    -0.00000     0.00000    -0.00000     0.00763
  49       0.00018    -0.00023    -0.00000    -0.00000    -0.00000    -0.02380
  50      -0.00074     0.00042    -0.00000     0.00000    -0.00000     0.00579
  51       0.00000    -0.00000     0.00095    -0.00086    -0.00129     0.00000
  52      -0.00161     0.00024     0.00000     0.00000     0.00000    -0.01085
  53      -0.00035     0.00049    -0.00000     0.00000    -0.00000    -0.00866
  54       0.00088    -0.00028     0.00000     0.00000    -0.00000    -0.00022
  55      -0.00000     0.00000    -0.00021     0.00019     0.00028    -0.00000

           31          32          33          34          35          36  
       ----------- ----------- ----------- ----------- ----------- -----------
   1       0.00000    -0.00000    -0.00000     0.00000    -0.00000    -0.12859
   2       0.01647    -0.06941     0.01412    -0.10785     0.29484    -0.00000
   3      -0.02837     0.00505    -0.29187     0.10794     0.05408    -0.00000
   4      -0.06526    -0.01901     0.11610     0.27636     0.09661    -0.00000
   5       0.00000    -0.00000     0.00000    -0.00000    -0.00000     0.45287
   6      -0.45494     0.10336     0.14115     0.61262    -0.09212    -0.00000
   7       0.08246    -0.24634     0.59632    -0.10953     0.18985    -0.00000
   8       0.16333     0.41059     0.16773    -0.12957    -0.59915     0.00000
   9       0.00000     0.00000     0.00000    -0.00000     0.00000    -0.39528
  10      -0.00078    -0.00189     0.00012     0.00015     0.00084     0.00000
  11       0.00034    -0.00018    -0.00072    -0.00045     0.00018     0.00000
  12       0.00065    -0.00064     0.00169    -0.00025     0.00023     0.00000
  13      -0.00085     0.00083    -0.00019     0.00193    -0.00080     0.00000
  14      -0.00000     0.00000    -0.00000     0.00000    -0.00000    -0.11396
  15       0.30882    -0.64561    -0.01083     0.36975    -0.58270     0.00000
  16       0.29035     0.26718     0.60684     0.27851     0.16779    -0.00000
  17      -0.59253    -0.20545     0.32518    -0.51135    -0.33256    -0.00000
  18      -0.00000    -0.00000     0.00000    -0.00000    -0.00000    -0.00011
  19      -0.00000    -0.00000     0.00000    -0.00000    -0.00000     0.00016
  20      -0.00000    -0.00000     0.00000    -0.00000    -0.00000     0.00009
  21       0.00010    -0.00140     0.00003     0.00023     0.00070    -0.00000
  22       0.00000     0.00000    -0.00000     0.00000    -0.00000    -0.00001
  23      -0.00000    -0.00000     0.00000     0.00000    -0.00000    -0.00009
  24       0.00033     0.00102    -0.00127     0.00058    -0.00010     0.00000
  25       0.00026     0.00075     0.00005     0.00149    -0.00042     0.00000
  26       0.00074    -0.00037    -0.00010    -0.00035     0.00015     0.00000
  27      -0.00000    -0.00000     0.00000     0.00000     0.00000    -0.00182
  28       0.00000    -0.00000     0.00000    -0.00000    -0.00000     0.00166
  29       0.00000    -0.00000     0.00000    -0.00000    -0.00000     0.00248
  30      -0.00037     0.00061     0.12773     0.00851    -0.02531    -0.00000
  31       1.62665     0.00105     0.00533    -0.12910    -0.01607    -0.00000
  32       0.00105     1.62539    -0.02662     0.01592    -0.12582     0.00000
  33       0.00533    -0.02662     1.79886    -0.00208    -0.00054    -0.00000
  34      -0.12910     0.01592    -0.00208     1.80089     0.00181     0.00000
  35      -0.01607    -0.12582    -0.00054     0.00181     1.80193    -0.00000
  36      -0.00000     0.00000    -0.00000     0.00000    -0.00000     0.39953
  37      -0.00000    -0.00000     0.00000     0.00000    -0.00000     0.00109
  38      -0.00000     0.00000    -0.00000     0.00000     0.00000     0.00110
  39       0.00000    -0.00000    -0.00000    -0.00000     0.00000     0.00065
  40       0.00000     0.00000     0.00000     0.00000     0.00000     0.00063
  41      -0.00000    -0.00000    -0.00000    -0.00000     0.00000    -0.00161
  42      -0.07712    -0.06341    -0.65141     0.23191     0.42754    -0.00000
  43      -0.01934     0.19098    -0.39651     0.14943    -0.68628     0.00000
  44      -0.18705     0.00655     0.26679     0.76286     0.01168     0.00000
  45      -0.00000     0.00000     0.00000     0.00000     0.00000    -0.00082
  46       0.00000     0.00000    -0.00000    -0.00000     0.00000     0.00007
  47      -0.00000    -0.00000     0.00000     0.00000     0.00000     2.14630
  48      -0.02078    -0.01366    -0.10656    -0.17581    -0.13022    -0.00000
  49      -0.01273     0.00025     0.21839    -0.08380    -0.04792     0.00000
  50      -0.01153     0.02189    -0.01063    -0.14092     0.20250     0.00000
  51      -0.00000     0.00000     0.00000    -0.00000    -0.00000    -0.92829
  52      -0.01424    -0.00339    -0.18983     0.19655     0.09155     0.00000
  53       0.00824     0.00067    -0.23380    -0.21747     0.00867     0.00000
  54      -0.00100     0.01073    -0.07929     0.07404    -0.30222     0.00000
  55       0.00000     0.00000    -0.00000     0.00000     0.00000     0.23447

           37          38          39          40          41          42  
       ----------- ----------- ----------- ----------- ----------- -----------
   1       0.00025     0.00025     0.00026     0.00025    -0.00064     0.00000
   2      -0.00000     0.00000    -0.00000     0.00000     0.00000     0.02326
   3       0.00000    -0.00000    -0.00000     0.00000    -0.00000     0.06081
   4      -0.00000     0.00000     0.00000    -0.00000     0.00000     0.00809
   5      -0.00056    -0.00056    -0.00002    -0.00002     0.00004    -0.00000
   6      -0.00000    -0.00000    -0.00000    -0.00000    -0.00000     0.00236
   7       0.00000     0.00000    -0.00000     0.00000     0.00000    -0.07035
   8       0.00000    -0.00000     0.00000    -0.00000     0.00000    -0.08343
[...]
  21       0.00000    -0.00000    -1.08048    -0.00000    -0.00001    -0.00001
  22       0.00000    -0.00000    -0.00116     0.00000    -0.00000    -0.00000
  23       0.00000     0.00000    -1.08037    -0.00000    -0.00001    -0.00001
  24       0.00000    -0.00000    -3.37178     0.00000    -0.00002    -0.00002
  25       0.00000     0.00000     0.00163    -0.00000     0.00000    -0.00000
  26      -0.00000     0.00000    -0.00179    -0.00000     0.00000    -0.00000
  27      -0.00000     0.00000    -3.37350     0.00000    -0.00002    -0.00002
  28      -0.00000     0.00000     0.00448    -0.00000     0.00000     0.00000
  29      -0.00000    -0.00000    -3.37391     0.00000    -0.00002    -0.00002
  30      -0.00000     0.00000    -0.28824     0.00000    -0.00002    -0.00002
  31      -0.00000    -0.00000    -0.00077     0.00000    -0.00000     0.00000
  32       0.00000    -0.00000     0.00084     0.00000    -0.00000     0.00000
  33       0.00000    -0.00000    -0.28743     0.00000    -0.00002    -0.00002
  34       0.00000    -0.00000    -0.00211     0.00000    -0.00000    -0.00000
  35       0.00000     0.00000    -0.28724     0.00000    -0.00002    -0.00002
  36      -0.02576    -0.85123    -0.00001     2.15685    -7.24756     3.40860
  37       1.93784    -0.52288    -0.00004    -5.40594    -3.92330    -4.91971
  38       1.79974     0.45334    -0.00003     5.91336    -0.94006    -5.74226
  39       0.75161     1.38619    -0.00001     2.15514    -7.24671     3.40665
  40      -0.03926     2.91588    -0.00000     0.00395    -0.00379     0.00206
  41      -0.67433     1.16750    -0.00001     2.15478    -7.24517     3.40902
  42      -0.30767     0.27542    -0.00004    -5.40515    -3.92069    -4.91930
  43      -1.11792     0.24979    -0.00003     5.90920    -0.94411    -5.74311
  44      -1.01483    -0.30337    -0.00004    -5.40125    -3.92106    -4.92263
  45      -0.22727    -0.23438    -0.00003     5.91218    -0.94159    -5.73970
  46       0.01203     0.39763    -0.00001     1.26141    -4.23491     1.99172
  47      -0.90521     0.24425    -0.00002    -3.16212    -2.29065    -2.87555
  48      -0.84070    -0.21176    -0.00002     3.45893    -0.55128    -3.35440
  49      -0.35109    -0.64752    -0.00001     1.26225    -4.23535     1.99272
  50       0.01834    -1.36207     0.00000    -0.00196     0.00193    -0.00105
  51       0.31499    -0.54536    -0.00001     1.26243    -4.23614     1.99150
  52       0.14372    -0.12865    -0.00002    -3.16251    -2.29198    -2.87576
  53       0.52221    -0.11668    -0.00002     3.46099    -0.54922    -3.35396
  54       0.47405     0.14171    -0.00002    -3.16445    -2.29179    -2.87406
  55       0.10616     0.10948    -0.00002     3.45952    -0.55050    -3.35571

           55  
       -----------
   1       4.86887
   2      12.20721
   3      -2.94316
   4      10.24405
   5       1.20388
   6       0.00000
   7       0.00002
   8       0.00001
   9      -0.00002
  10      -0.00007
  11      -0.00005
  12      -0.00001
  13      -0.00002
  14      -0.00001
  15       0.00000
  16       0.00000
  17       0.00000
  18      -4.20234
  19      -0.00203
  20       0.00222
  21      -4.20020
  22      -0.00556
  23      -4.19970
  24      -5.35332
  25       0.00139
  26      -0.00152
  27      -5.35478
  28       0.00380
  29      -5.35512
  30      -1.28683
  31      -0.00050
  32       0.00055
  33      -1.28630
  34      -0.00137
  35      -1.28618
  36       0.00001
  37       0.00004
  38       0.00003
  39       0.00001
  40       0.00000
  41       0.00001
  42       0.00004
  43       0.00003
  44       0.00004
  45       0.00003
  46       0.00001
  47       0.00002
  48       0.00002
  49       0.00001
  50      -0.00000
  51       0.00001
  52       0.00002
  53       0.00002
  54       0.00002
  55       0.00002
  int_init: cando_txs set to always be  F
                                NWChem TDDFT Module
                                -------------------


            General Information
            -------------------
           No. of orbitals :     110
            Alpha orbitals :      55
             Beta orbitals :      55
        Alpha frozen cores :       0
         Beta frozen cores :       0
     Alpha frozen virtuals :       0
      Beta frozen virtuals :       0
         Spin multiplicity :       3
    Number of AO functions :      55
        Use of symmetry is : off
      Symmetry adaption is : off
         Schwarz screening :  0.10D-07

              XC Information
              --------------
              Hartree-Fock (Exact) Exchange   1.00          
              LC-wPBE(h)Exchange Functional   1.00          
     Perdew 1991 LDA Correlation Functional   1.00 local    
    PerdewBurkeErnz. Correlation Functional   1.00 non-local
           Alpha           :  0.00
           Beta            :  1.00
           Gamma           :  0.40

             TDDFT Information
             -----------------
          Calculation type : TDDFT             
         Wavefunction type : Unrestricted
          No. of electrons :       6
           Alpha electrons :       4
            Beta electrons :       2
              No. of roots :       5
          Max subspacesize :    5000
            Max iterations :     100
               Target root :       1
           Target symmetry : none
      Symmetry restriction : off
                 Algorithm : Optimal
        Davidson threshold :  0.10D-03

            Memory Information
            ------------------
          Available GA space size is       52428793950 doubles
          Available MA space size is        4194413092 doubles
          Length of a trial vector is          204     106
          Algorithm : Incore multiple tensor contraction
          Estimated peak GA usage is           6711300 doubles
          Estimated peak MA usage is             18000 doubles

    5 smallest eigenvalue differences (eV) 
--------------------------------------------------------
  No. Spin  Occ  Vir  Irrep   E(Occ)    E(Vir)   E(Diff)
--------------------------------------------------------
    1    1    4    5 a        -0.393    -0.051     9.280
    2    1    3    5 a        -0.393    -0.051     9.280
    3    1    4    6 a        -0.393     0.064    12.422
    4    1    3    6 a        -0.393     0.064    12.422
    5    1    4    7 a        -0.393     0.090    13.120
--------------------------------------------------------

  Entering Davidson iterations
  Unrestricted

  Iter   NTrls   NConv    DeltaV     DeltaE      Time   
  ----  ------  ------  ---------  ---------  --------- 
    1      5       0     0.11E+00   0.10+100        2.0
    2     15       0     0.41E-01   0.17E-01        3.2
    3     25       0     0.17E-01   0.99E-03        3.4
    4     33       0     0.27E-01   0.13E-02        2.8
    5     41       2     0.15E-01   0.59E-03        2.9
    6     47       2     0.71E-02   0.23E-03        2.3
    7     53       4     0.16E-02   0.32E-04        2.3
    8     55       4     0.15E-03   0.10E-05        1.2
    9     57       5     0.87E-04   0.88E-08        1.2
  ----  ------  ------  ---------  ---------  --------- 
  Convergence criterion met

  Ground state a         -37.817371996130 a.u.
  <S2> =   2.0032

  ----------------------------------------------------------------------------
  Root   1         a              0.000083648 a.u.                0.0023 eV 
  <S2> =   2.0033
  ----------------------------------------------------------------------------
     Transition Moments    X  0.00000   Y -0.00000   Z  0.00000
     Transition Moments   XX -4.09992  XY  4.95759  XZ -5.03860
     Transition Moments   YY  0.90700  YZ -1.95554  ZZ  3.19296
     Dipole Oscillator Strength                    0.0000000000
     Electric Quadrupole                           0.0000000000
     Magnetic Dipole                               0.0000000000
     Total Oscillator Strength                     0.0000000000

     Occ.    2 alpha a   ---  Virt.   12 alpha a   -0.12765 X
     Occ.    2 alpha a   ---  Virt.   12 alpha a   -0.12757 Y
     Occ.    2 alpha a   ---  Virt.   21 alpha a   -0.06578 X
     Occ.    2 alpha a   ---  Virt.   21 alpha a   -0.06576 Y
     Occ.    2 alpha a   ---  Virt.   22 alpha a    0.09851 X
     Occ.    2 alpha a   ---  Virt.   22 alpha a    0.09848 Y
     Occ.    3 alpha a   ---  Virt.    5 alpha a   -2.69326 X
     Occ.    3 alpha a   ---  Virt.    5 alpha a   -2.65008 Y
     Occ.    3 alpha a   ---  Virt.    9 alpha a   -0.46084 X
     Occ.    3 alpha a   ---  Virt.    9 alpha a   -0.45381 Y
     Occ.    3 alpha a   ---  Virt.   18 alpha a   -0.21725 X
     Occ.    3 alpha a   ---  Virt.   18 alpha a   -0.21423 Y
     Occ.    3 alpha a   ---  Virt.   34 alpha a    0.05098 X
     Occ.    3 alpha a   ---  Virt.   34 alpha a    0.05040 Y
     Occ.    4 alpha a   ---  Virt.    5 alpha a    4.81195 X
     Occ.    4 alpha a   ---  Virt.    5 alpha a    4.73480 Y
     Occ.    4 alpha a   ---  Virt.    9 alpha a    0.82336 X
     Occ.    4 alpha a   ---  Virt.    9 alpha a    0.81081 Y
     Occ.    4 alpha a   ---  Virt.   18 alpha a    0.38815 X
     Occ.    4 alpha a   ---  Virt.   18 alpha a    0.38276 Y
     Occ.    4 alpha a   ---  Virt.   34 alpha a   -0.09109 X
     Occ.    4 alpha a   ---  Virt.   34 alpha a   -0.09005 Y
     Occ.    2 beta  a   ---  Virt.   12 beta  a   -0.14908 X
     Occ.    2 beta  a   ---  Virt.   12 beta  a   -0.14903 Y
     Occ.    2 beta  a   ---  Virt.   21 beta  a    0.25938 X
     Occ.    2 beta  a   ---  Virt.   21 beta  a    0.25934 Y
     Occ.    2 beta  a   ---  Virt.   41 beta  a    0.10286 X
     Occ.    2 beta  a   ---  Virt.   41 beta  a    0.10286 Y
  ----------------------------------------------------------------------------
  Root   2         a              0.000104545 a.u.                0.0028 eV 
  <S2> =   2.0033
  ----------------------------------------------------------------------------
     Transition Moments    X -0.00000   Y  0.00000   Z -0.00000
     Transition Moments   XX  0.44799  XY  0.88076  XZ  1.85095
     Transition Moments   YY -7.23033  YZ  0.85432  ZZ  6.78231
     Dipole Oscillator Strength                    0.0000000000
     Electric Quadrupole                           0.0000000000
     Magnetic Dipole                               0.0000000000
     Total Oscillator Strength                     0.0000000000

     Occ.    2 alpha a   ---  Virt.   11 alpha a    0.11419 X
     Occ.    2 alpha a   ---  Virt.   11 alpha a    0.11410 Y
     Occ.    2 alpha a   ---  Virt.   21 alpha a   -0.08812 X
     Occ.    2 alpha a   ---  Virt.   21 alpha a   -0.08808 Y
     Occ.    2 alpha a   ---  Virt.   22 alpha a   -0.05885 X
     Occ.    2 alpha a   ---  Virt.   22 alpha a   -0.05882 Y
     Occ.    3 alpha a   ---  Virt.    5 alpha a   -4.31290 X
     Occ.    3 alpha a   ---  Virt.    5 alpha a   -4.22665 Y
     Occ.    3 alpha a   ---  Virt.    9 alpha a   -0.73790 X
     Occ.    3 alpha a   ---  Virt.    9 alpha a   -0.72386 Y
     Occ.    3 alpha a   ---  Virt.   18 alpha a   -0.34780 X
     Occ.    3 alpha a   ---  Virt.   18 alpha a   -0.34177 Y
     Occ.    3 alpha a   ---  Virt.   34 alpha a    0.08159 X
     Occ.    3 alpha a   ---  Virt.   34 alpha a    0.08043 Y
     Occ.    4 alpha a   ---  Virt.    5 alpha a   -2.41392 X
     Occ.    4 alpha a   ---  Virt.    5 alpha a   -2.36565 Y
     Occ.    4 alpha a   ---  Virt.    9 alpha a   -0.41300 X
     Occ.    4 alpha a   ---  Virt.    9 alpha a   -0.40514 Y
     Occ.    4 alpha a   ---  Virt.   18 alpha a   -0.19466 X
     Occ.    4 alpha a   ---  Virt.   18 alpha a   -0.19129 Y
     Occ.    2 beta  a   ---  Virt.   11 beta  a   -0.13335 X
     Occ.    2 beta  a   ---  Virt.   11 beta  a   -0.13330 Y
     Occ.    2 beta  a   ---  Virt.   20 beta  a   -0.23201 X
     Occ.    2 beta  a   ---  Virt.   20 beta  a   -0.23198 Y
     Occ.    2 beta  a   ---  Virt.   40 beta  a   -0.09201 X
     Occ.    2 beta  a   ---  Virt.   40 beta  a   -0.09201 Y
  ----------------------------------------------------------------------------
  Root   3         a              0.268997180 a.u.                7.3198 eV 
  <S2> =   2.0051
  ----------------------------------------------------------------------------
     Transition Moments    X  0.61752   Y  0.31197   Z  0.05999
     Transition Moments   XX -0.00001  XY  0.00000  XZ  0.00000
     Transition Moments   YY -0.00001  YZ  0.00000  ZZ -0.00001
     Dipole Oscillator Strength                    0.0864840595
     Electric Quadrupole                           0.0000000000
     Magnetic Dipole                               0.0000000000
     Total Oscillator Strength                     0.0864840595

     Occ.    4 alpha a   ---  Virt.    6 alpha a   -0.94935 X
     Occ.    4 alpha a   ---  Virt.   10 alpha a    0.22691 X
     Occ.    4 alpha a   ---  Virt.   15 alpha a   -0.05883 X
     Occ.    2 beta  a   ---  Virt.    4 beta  a   -0.17769 X
     Occ.    2 beta  a   ---  Virt.    8 beta  a   -0.08698 X
  ----------------------------------------------------------------------------
  Root   4         a              0.268997248 a.u.                7.3198 eV 
  <S2> =   2.0051
  ----------------------------------------------------------------------------
     Transition Moments    X -0.26142   Y  0.42451   Z  0.48343
     Transition Moments   XX -0.00001  XY  0.00000  XZ -0.00000
     Transition Moments   YY -0.00001  YZ  0.00000  ZZ -0.00001
     Dipole Oscillator Strength                    0.0864840691
     Electric Quadrupole                           0.0000000000
     Magnetic Dipole                               0.0000000000
     Total Oscillator Strength                     0.0864840691

     Occ.    3 alpha a   ---  Virt.    6 alpha a   -0.94935 X
     Occ.    3 alpha a   ---  Virt.   10 alpha a    0.22691 X
     Occ.    3 alpha a   ---  Virt.   15 alpha a   -0.05883 X
     Occ.    2 beta  a   ---  Virt.    5 beta  a   -0.17769 X
     Occ.    2 beta  a   ---  Virt.    9 beta  a   -0.08698 X
  ----------------------------------------------------------------------------
  Root   5         a              0.310201444 a.u.                8.4410 eV 
  <S2> =   2.0042
  ----------------------------------------------------------------------------
     Transition Moments    X -0.00001   Y -0.00001   Z -0.00000
     Transition Moments   XX -0.64009  XY  0.57808  XZ  0.76192
     Transition Moments   YY  0.60504  YZ  0.34230  ZZ  0.03506
     Dipole Oscillator Strength                    0.0000000000
     Electric Quadrupole                           0.0000002258
     Magnetic Dipole                               0.0000000000
     Total Oscillator Strength                     0.0000002258

     Occ.    3 alpha a   ---  Virt.    8 alpha a   -0.69399 X
     Occ.    3 alpha a   ---  Virt.   17 alpha a   -0.13284 X
     Occ.    4 alpha a   ---  Virt.    7 alpha a   -0.69400 X
     Occ.    4 alpha a   ---  Virt.   16 alpha a   -0.13284 X

              Target root =      1
          Target symmetry = none
      Ground state energy =    -37.817371996130
        Excitation energy =      0.000083648308
     Excited state energy =    -37.817288347822

  stored tddft:energy   -37.817288347822192     

 Task  times  cpu:       20.3s     wall:       23.7s


                                NWChem Input Module
                                -------------------


 Summary of allocated global arrays
-----------------------------------
  No active global arrays


MA_summarize_allocated_blocks: starting scan ...
heap block 'gridpts', handle 114, address 0x127ecba8:
	type of elements:		double precision
	number of elements:		1048465655
	address of client space:	0x127ecc00
	index for client space:		10630359
	total number of bytes:		8387725336
MA_summarize_allocated_blocks: scan completed: 1 heap block, 0 stack blocks
MA usage statistics:

	allocation statistics:
					      heap	     stack
					      ----	     -----
	current number of blocks	         1	         0
	maximum number of blocks	        18	        54
	current total bytes		8387725336	         0
	maximum total bytes		8388517952	  22513224
	maximum total K-bytes		   8388518	     22514
	maximum total M-bytes		      8389	        23


                                     CITATION
                                     --------
                Please cite the following reference when publishing
                           results obtained with NWChem:

          E. Apra, E. J. Bylaska, W. A. de Jong, N. Govind, K. Kowalski,
       T. P. Straatsma, M. Valiev, H. J. J. van Dam, Y. Alexeev, J. Anchell,
       V. Anisimov, F. W. Aquino, R. Atta-Fynn, J. Autschbach, N. P. Bauman,
     J. C. Becca, D. E. Bernholdt, K. Bhaskaran-Nair, S. Bogatko, P. Borowski,
         J. Boschen, J. Brabec, A. Bruner, E. Cauet, Y. Chen, G. N. Chuev,
      C. J. Cramer, J. Daily, M. J. O. Deegan, T. H. Dunning Jr., M. Dupuis,
   K. G. Dyall, G. I. Fann, S. A. Fischer, A. Fonari, H. Fruchtl, L. Gagliardi,
      J. Garza, N. Gawande, S. Ghosh, K. Glaesemann, A. W. Gotz, J. Hammond,
       V. Helms, E. D. Hermes, K. Hirao, S. Hirata, M. Jacquelin, L. Jensen,
   B. G. Johnson, H. Jonsson, R. A. Kendall, M. Klemm, R. Kobayashi, V. Konkov,
      S. Krishnamoorthy, M. Krishnan, Z. Lin, R. D. Lins, R. J. Littlefield,
      A. J. Logsdail, K. Lopata, W. Ma, A. V. Marenich, J. Martin del Campo,
   D. Mejia-Rodriguez, J. E. Moore, J. M. Mullin, T. Nakajima, D. R. Nascimento,
    J. A. Nichols, P. J. Nichols, J. Nieplocha, A. Otero-de-la-Roza, B. Palmer,
    A. Panyala, T. Pirojsirikul, B. Peng, R. Peverati, J. Pittner, L. Pollack,
   R. M. Richard, P. Sadayappan, G. C. Schatz, W. A. Shelton, D. W. Silverstein,
   D. M. A. Smith, T. A. Soares, D. Song, M. Swart, H. L. Taylor, G. S. Thomas,
            V. Tipparaju, D. G. Truhlar, K. Tsemekhman, T. Van Voorhis,
      A. Vazquez-Mayagoitia, P. Verma, O. Villa, A. Vishnu, K. D. Vogiatzis,
        D. Wang, J. H. Weare, M. J. Williamson, T. L. Windus, K. Wolinski,
        A. T. Wong, Q. Wu, C. Yang, Q. Yu, M. Zacharias, Z. Zhang, Y. Zhao,
                                and R. J. Harrison
                        "NWChem: Past, present, and future
                         J. Chem. Phys. 152, 184102 (2020)
                               doi:10.1063/5.0004997

                                      AUTHORS
                                      -------
  E. Apra, E. J. Bylaska, N. Govind, K. Kowalski, M. Valiev, D. Mejia-Rodriguez,
       A. Kunitsa, N. P. Bauman, A. Panyala, W. A. de Jong, T. P. Straatsma,
   H. J. J. van Dam, D. Wang, T. L. Windus, J. Hammond, J. Autschbach, A. Woods,
    K. Bhaskaran-Nair, J. Brabec, K. Lopata, S. A. Fischer, S. Krishnamoorthy,
     M. Jacquelin, W. Ma, M. Klemm, O. Villa, Y. Chen, V. Anisimov, F. Aquino,
     S. Hirata, M. T. Hackler, E. Hermes, L. Jensen, J. E. Moore, J. C. Becca,
      V. Konjkov, T. Risthaus, M. Malagoli, A. Marenich, A. Otero-de-la-Roza,
        J. Mullin, P. Nichols, R. Peverati, J. Pittner, Y. Zhao, P.-D. Fan,
        A. Fonari, M. J. Williamson, R. J. Harrison, J. R. Rehr, M. Dupuis,
     D. Silverstein, D. M. A. Smith, J. Nieplocha, V. Tipparaju, M. Krishnan,
     B. E. Van Kuiken, A. Vazquez-Mayagoitia, M. Swart, Q. Wu, T. Van Voorhis,
     A. A. Auer, M. Nooijen, L. D. Crosby, E. Brown, G. Cisneros, G. I. Fann,
   H. Fruchtl, J. Garza, K. Hirao, R. A. Kendall, J. A. Nichols, K. Tsemekhman,
    K. Wolinski, J. Anchell, D. E. Bernholdt, P. Borowski, T. Clark, D. Clerc,
   H. Dachsel, M. J. O. Deegan, K. Dyall, D. Elwood, E. Glendening, M. Gutowski,
   A. C. Hess, J. Jaffe, B. G. Johnson, J. Ju, R. Kobayashi, R. Kutteh, Z. Lin,
   R. Littlefield, X. Long, B. Meng, T. Nakajima, S. Niu, L. Pollack, M. Rosing,
   K. Glaesemann, G. Sandrone, M. Stave, H. Taylor, G. Thomas, J. H. van Lenthe,
                               A. T. Wong, Z. Zhang.

 Total times  cpu:       20.3s     wall:       24.0s
