 argument  1 = /home/aditisingh4812/nw_chem/nwchem-run/nwchem-run/tddft/open/open_atom/geom-MOL-0.4/cl.nw
                                         
                                         


             Northwest Computational Chemistry Package (NWChem) 7.2.3
             --------------------------------------------------------


                    Environmental Molecular Sciences Laboratory
                       Pacific Northwest National Laboratory
                                Richland, WA 99352

                              Copyright (c) 1994-2022
                       Pacific Northwest National Laboratory
                            Battelle Memorial Institute

             NWChem is an open-source computational chemistry package
                        distributed under the terms of the
                      Educational Community License (ECL) 2.0
             A copy of the license is included with this distribution
                              in the LICENSE.TXT file

                                  ACKNOWLEDGMENT
                                  --------------

            This software and its documentation were developed at the
            EMSL at Pacific Northwest National Laboratory, a multiprogram
            national laboratory, operated for the U.S. Department of Energy
            by Battelle under Contract Number DE-AC05-76RL01830. Support
            for this work was provided by the Department of Energy Office
            of Biological and Environmental Research, Office of Basic
            Energy Sciences, and the Office of Advanced Scientific Computing.


           Job information
           ---------------

    hostname        = p17
    program         = /home/aditisingh4812/nw_chem/nwchem-7.2.3-release.revision-d690e065-srconly.2024-08-27/nwchem-7.2.3/bin/LINUX64/nwchem
    date            = Thu Apr 24 11:12:36 2025

    compiled        = Mon_Apr_07_18:51:54_2025
    source          = /home/aditisingh4812/nw_chem/nwchem-7.2.3-release.revision-d690e065-srconly.2024-08-27/nwchem-7.2.3
    nwchem branch   = 7.2.3
    nwchem revision = d690e065
    ga revision     = 5.8.0
    use scalapack   = F
    input           = /home/aditisingh4812/nw_chem/nwchem-run/nwchem-run/tddft/open/open_atom/geom-MOL-0.4/cl.nw
    prefix          = cl.
    data base       = ./cl.db
    status          = startup
    nproc           =        8
    time left       =     -1s



           Memory information
           ------------------

    heap     = 2621440000 doubles =  20000.0 Mbytes
    stack    = 2621439997 doubles =  20000.0 Mbytes
    global   = 6553600000 doubles =  50000.0 Mbytes (distinct from heap & stack)
    total    = ********** doubles =  90000.0 Mbytes
    verify   = yes
    hardfail = no 


           Directory information
           ---------------------

  0 permanent = .
  0 scratch   = .




                                NWChem Input Module
                                -------------------



 Scaling coordinates for geometry "geometry" by  1.889725989
 (inverse scale =  0.529177249)



                             Geometry "geometry" -> ""
                             -------------------------

 Output coordinates in angstroms (scale by  1.889725989 to convert to a.u.)

  No.       Tag          Charge          X              Y              Z
 ---- ---------------- ---------- -------------- -------------- --------------
    1 Cl                  17.0000     0.00000000     0.00000000     0.00000000

      Atomic Mass 
      ----------- 

      Cl                34.968850


 Effective nuclear repulsion energy (a.u.)       0.0000000000

            Nuclear Dipole moment (a.u.) 
            ----------------------------
        X                 Y               Z
 ---------------- ---------------- ----------------
     0.0000000000     0.0000000000     0.0000000000


            XYZ format geometry
            -------------------
     1
 geometry
 Cl                    0.00000000     0.00000000     0.00000000



 Summary of "ao basis" -> "" (cartesian)
 ------------------------------------------------------------------------------
       Tag                 Description            Shells   Functions and Types
 ---------------- ------------------------------  ------  ---------------------
 *                        aug-cc-pVTZ                 on all atoms 


  pbe96 is a nonlocal functional; adding pw91lda local functional. 

                                 NWChem DFT Module
                                 -----------------


                      Basis "ao basis" -> "ao basis" (cartesian)
                      -----
  Cl (Chlorine)
  -------------
            Exponent  Coefficients 
       -------------- ---------------------------------------------------------
  1 S  4.56100000E+05  0.000049
  1 S  6.83300000E+04  0.000383
  1 S  1.55500000E+04  0.002009
  1 S  4.40500000E+03  0.008386
  1 S  1.43900000E+03  0.029470
  1 S  5.20400000E+02  0.087833
  1 S  2.03100000E+02  0.211473
  1 S  8.39600000E+01  0.365364
  1 S  3.62000000E+01  0.340884
  1 S  1.58300000E+01  0.102133
  1 S  6.33400000E+00  0.003117
  1 S  2.69400000E+00  0.001058
  1 S  4.31300000E-01  0.000156

  2 S  4.56100000E+05 -0.000014
  2 S  6.83300000E+04 -0.000107
  2 S  1.55500000E+04 -0.000565
  2 S  4.40500000E+03 -0.002361
  2 S  1.43900000E+03 -0.008459
  2 S  5.20400000E+02 -0.025964
  2 S  2.03100000E+02 -0.068636
  2 S  8.39600000E+01 -0.141874
  2 S  3.62000000E+01 -0.199319
  2 S  1.58300000E+01 -0.019566
  2 S  6.33400000E+00  0.499741
  2 S  2.69400000E+00  0.563736
  2 S  4.31300000E-01 -0.008351

  3 S  4.56100000E+05  0.000004
  3 S  6.83300000E+04  0.000032
  3 S  1.55500000E+04  0.000171
  3 S  4.40500000E+03  0.000714
  3 S  1.43900000E+03  0.002567
  3 S  5.20400000E+02  0.007886
  3 S  2.03100000E+02  0.021087
  3 S  8.39600000E+01  0.044226
  3 S  3.62000000E+01  0.065167
  3 S  1.58300000E+01  0.006030
  3 S  6.33400000E+00 -0.206495
  3 S  2.69400000E+00 -0.405871
  3 S  4.31300000E-01  0.725661

  4 S  9.76800000E-01  1.000000

  5 S  1.62500000E-01  1.000000

  6 S  5.91000000E-02  1.000000

  7 P  6.63300000E+02  0.002404
  7 P  1.56800000E+02  0.019215
  7 P  4.99800000E+01  0.088510
  7 P  1.84200000E+01  0.256020
  7 P  7.24000000E+00  0.436927
  7 P  2.92200000E+00  0.350334
  7 P  3.81800000E-01 -0.004584

  8 P  6.63300000E+02 -0.000652
  8 P  1.56800000E+02 -0.005194
  8 P  4.99800000E+01 -0.024694
  8 P  1.84200000E+01 -0.072817
  8 P  7.24000000E+00 -0.134030
  8 P  2.92200000E+00 -0.094774
  8 P  3.81800000E-01  0.564667

  9 P  1.02200000E+00  1.000000

 10 P  1.30100000E-01  1.000000

 11 P  4.19000000E-02  1.000000

 12 D  1.04600000E+00  1.000000

 13 D  3.44000000E-01  1.000000

 14 D  1.35000000E-01  1.000000

 15 F  7.06000000E-01  1.000000

 16 F  3.12000000E-01  1.000000



 Summary of "ao basis" -> "ao basis" (cartesian)
 ------------------------------------------------------------------------------
       Tag                 Description            Shells   Functions and Types
 ---------------- ------------------------------  ------  ---------------------
 Cl                       aug-cc-pVTZ               16       59   6s5p3d2f




 Summary of "ao basis" -> "ao basis" (cartesian)
 ------------------------------------------------------------------------------
       Tag                 Description            Shells   Functions and Types
 ---------------- ------------------------------  ------  ---------------------
 Cl                       aug-cc-pVTZ               16       59   6s5p3d2f




                         Geometry "geometry" -> "geometry"
                         ---------------------------------

 Output coordinates in angstroms (scale by  1.889725989 to convert to a.u.)

  No.       Tag          Charge          X              Y              Z
 ---- ---------------- ---------- -------------- -------------- --------------
    1 Cl                  17.0000     0.00000000     0.00000000     0.00000000

      Atomic Mass 
      ----------- 

      Cl                34.968850


 Effective nuclear repulsion energy (a.u.)       0.0000000000

            Nuclear Dipole moment (a.u.) 
            ----------------------------
        X                 Y               Z
 ---------------- ---------------- ----------------
     0.0000000000     0.0000000000     0.0000000000


                      Basis "ao basis" -> "ao basis" (cartesian)
                      -----
  Cl (Chlorine)
  -------------
            Exponent  Coefficients 
       -------------- ---------------------------------------------------------
  1 S  4.56100000E+05  0.616596
  1 S  6.83300000E+04  1.153654
  1 S  1.55500000E+04  1.993258
  1 S  4.40500000E+03  3.231304
  1 S  1.43900000E+03  4.906992
  1 S  5.20400000E+02  6.820142
  1 S  2.03100000E+02  8.108165
  1 S  8.39600000E+01  7.222130
  1 S  3.62000000E+01  3.585282
  1 S  1.58300000E+01  0.577646
  1 S  6.33400000E+00  0.008868
  1 S  2.69400000E+00  0.001585
  1 S  4.31300000E-01  0.000059

  2 S  4.56100000E+05 -0.183918
  2 S  6.83300000E+04 -0.343532
  2 S  1.55500000E+04 -0.596216
  2 S  4.40500000E+03 -0.967417
  2 S  1.43900000E+03 -1.497446
  2 S  5.20400000E+02 -2.143458
  2 S  2.03100000E+02 -2.797882
  2 S  8.39600000E+01 -2.981610
  2 S  3.62000000E+01 -2.228814
  2 S  1.58300000E+01 -0.117655
  2 S  6.33400000E+00  1.511810
  2 S  2.69400000E+00  0.898189
  2 S  4.31300000E-01 -0.003368

  3 S  4.56100000E+05  0.081248
  3 S  6.83300000E+04  0.151638
  3 S  1.55500000E+04  0.263533
  3 S  4.40500000E+03  0.427109
  3 S  1.43900000E+03  0.663367
  3 S  5.20400000E+02  0.950293
  3 S  2.03100000E+02  1.254773
  3 S  8.39600000E+01  1.356782
  3 S  3.62000000E+01  1.063734
  3 S  1.58300000E+01  0.052931
  3 S  6.33400000E+00 -0.911889
  3 S  2.69400000E+00 -0.943974
  3 S  4.31300000E-01  0.427162

  4 S  9.76800000E-01  0.700268

  5 S  1.62500000E-01  0.182411

  6 S  5.91000000E-02  0.085428

  7 P  6.63300000E+02 11.869963
  7 P  1.56800000E+02 15.635405
  7 P  4.99800000E+01 17.249514
  7 P  1.84200000E+01 14.327704
  7 P  7.24000000E+00  7.609792
  7 P  2.92200000E+00  1.962787
  7 P  3.81800000E-01 -0.002018

  8 P  6.63300000E+02 -5.363177
  8 P  1.56800000E+02 -7.041459
  8 P  4.99800000E+01 -8.017219
  8 P  1.84200000E+01 -6.788651
  8 P  7.24000000E+00 -3.888801
  8 P  2.92200000E+00 -0.884567
  8 P  3.81800000E-01  0.414026

  9 P  1.02200000E+00  1.464717

 10 P  1.30100000E-01  0.111375

 11 P  4.19000000E-02  0.027021

 12 D  1.04600000E+00  1.780696

 13 D  3.44000000E-01  0.254324

 14 D  1.35000000E-01  0.049487

 15 F  7.06000000E-01  0.672613

 16 F  3.12000000E-01  0.107103



    Basis function labels
    ---------------------
       No.  Atm El Type
       ---  --- -- ----
        1    1 Cl s          
        2    1 Cl s          
        3    1 Cl s          
        4    1 Cl s          
        5    1 Cl s          
        6    1 Cl s          
        7    1 Cl px         
        8    1 Cl py         
        9    1 Cl pz         
       10    1 Cl px         
       11    1 Cl py         
       12    1 Cl pz         
       13    1 Cl px         
       14    1 Cl py         
       15    1 Cl pz         
       16    1 Cl px         
       17    1 Cl py         
       18    1 Cl pz         
       19    1 Cl px         
       20    1 Cl py         
       21    1 Cl pz         
       22    1 Cl dxx        
       23    1 Cl dxy        
       24    1 Cl dxz        
       25    1 Cl dyy        
       26    1 Cl dyz        
       27    1 Cl dzz        
       28    1 Cl dxx        
       29    1 Cl dxy        
       30    1 Cl dxz        
       31    1 Cl dyy        
       32    1 Cl dyz        
       33    1 Cl dzz        
       34    1 Cl dxx        
       35    1 Cl dxy        
       36    1 Cl dxz        
       37    1 Cl dyy        
       38    1 Cl dyz        
       39    1 Cl dzz        
       40    1 Cl fxxx       
       41    1 Cl fxxy       
       42    1 Cl fxxz       
       43    1 Cl fxyy       
       44    1 Cl fxyz       
       45    1 Cl fxzz       
       46    1 Cl fyyy       
       47    1 Cl fyyz       
       48    1 Cl fyzz       
       49    1 Cl fzzz       
       50    1 Cl fxxx       
       51    1 Cl fxxy       
       52    1 Cl fxxz       
       53    1 Cl fxyy       
       54    1 Cl fxyz       
       55    1 Cl fxzz       
       56    1 Cl fyyy       
       57    1 Cl fyyz       
       58    1 Cl fyzz       
       59    1 Cl fzzz       
  int_init: cando_txs set to always be  F

 Schwarz integral screening summary 
 ---------------------------------- 

        No. of atom pairs =       1
       No. of shell pairs =     136

 Atomic screening 

   value      no.     value      no.     value      no.     value      no.   
  -------- ------    -------- ------    -------- ------    -------- ------   
  0.00D+00      0    1.00D-13      0    1.00D-12      0    1.00D-11      0
  1.00D-10      0    1.00D-09      0    1.00D-08      0    1.00D-07      0
  1.00D-06      0    1.00D-05      0    1.00D-04      0    1.00D-03      0
  1.00D-02      0    1.00D-01      0    1.00D+00      0    1.00D+01      1


 Shell screening 

   value      no.     value      no.     value      no.     value      no.   
  -------- ------    -------- ------    -------- ------    -------- ------   
  0.00D+00      0    1.00D-13      0    1.00D-12      0    1.00D-11      0
  1.00D-10      0    1.00D-09      0    1.00D-08      0    1.00D-07      0
  1.00D-06      0    1.00D-05      0    1.00D-04      1    1.00D-03      5
  1.00D-02      7    1.00D-01     42    1.00D+00     80    1.00D+01      1


  Caching 1-el integrals 
  atom                     1  - neighbor  & S                     1   10.000000000000000       exp AB    4.1900000000000034E-002   4.1900000000000034E-002
 zmins =     0.041900000    0.041900000 lprod =   2 range =        17.16 acc   0.10D-07
 sh     0.000000000
  Center:                     1  Radial Pts. & Wghts. 
    1        0.000002264           3.4820778E-17
    2        0.000018113           8.9141815E-15
    3        0.000061133           2.2846506E-13
    4        0.000144908           2.2821582E-12
    5        0.000283028           1.3603553E-11
    6        0.000489083           5.8498109E-11
    7        0.000776671           2.0080351E-10
    8        0.001159394           5.8449429E-10
    9        0.001650868           1.5000119E-09
   10        0.002264718           3.4855583E-09
   11        0.003014589           7.4740780E-09
   12        0.003914146           1.4998182E-08
   13        0.004977076           2.8466842E-08
   14        0.006217098           5.1529336E-08
   15        0.007647967           8.9543632E-08
   16        0.009283475           1.5016824E-07
   17        0.011137462           2.4409849E-07
   18        0.013223821           3.8597022E-07
   19        0.015556505           5.9545617E-07
   20        0.018149533           8.9858277E-07
   21        0.021017000           1.3292975E-06
   22        0.024173085           1.9313203E-06
   23        0.027632058           2.7603145E-06
   24        0.031408290           3.8864190E-06
   25        0.035516267           5.3971823E-06
   26        0.039970593           7.4009496E-06
   27        0.044786008           1.0030753E-05
   28        0.049977395           1.3448765E-05
   29        0.055559796           1.7851375E-05
   30        0.061548420           2.3474966E-05
   31        0.067958664           3.0602462E-05
   32        0.074806118           3.9570733E-05
   33        0.082106589           5.0778964E-05
   34        0.089876110           6.4698068E-05
   35        0.098130961           8.1881291E-05
   36        0.106887685           1.0297612E-04
   37        0.116163108           1.2873762E-04
   38        0.125974353           1.6004342E-04
   39        0.136338870           1.9791048E-04
   40        0.147274449           2.4351380E-04
   41        0.158799247           2.9820744E-04
   42        0.170931813           3.6354790E-04
   43        0.183691110           4.4132032E-04
   44        0.197096545           5.3356771E-04
   45        0.211167998           6.4262363E-04
   46        0.225925848           7.7114860E-04
   47        0.241391010           9.2217087E-04
   48        0.257584965           1.0991319E-03
   49        0.274529800           1.3059372E-03
   50        0.292248241           1.5470130E-03
   51        0.310763700           1.8273699E-03
   52        0.330100313           2.1526740E-03
   53        0.350282989           2.5293261E-03
   54        0.371337456           2.9645510E-03
   55        0.393290319           3.4664968E-03
   56        0.416169110           4.0443475E-03
   57        0.440002353           4.7084480E-03
   58        0.464819623           5.4704450E-03
   59        0.490651619           6.3434461E-03
   60        0.517530238           7.3421976E-03
   61        0.545488650           8.4832860E-03
   62        0.574561388           9.7853644E-03
   63        0.604784436           1.1269408E-02
   64        0.636195332           1.2959005E-02
   65        0.668833272           1.4880681E-02
   66        0.702739226           1.7064274E-02
   67        0.737956065           1.9543352E-02
   68        0.774528695           2.2355696E-02
   69        0.812504207           2.5543839E-02
   70        0.851932032           2.9155696E-02
   71        0.892864124           3.3245265E-02
   72        0.935355141           3.7873447E-02
   73        0.979462663           4.3108972E-02
   74        1.025247410           4.9029471E-02
   75        1.072773500           5.5722709E-02
   76        1.122108720           6.3287999E-02
   77        1.173324828           7.1837849E-02
   78        1.226497885           8.1499858E-02
   79        1.281708626           9.2418927E-02
   80        1.339042866           1.0475982E-01
   81        1.398591950           1.1871019E-01
   82        1.460453257           1.3448403E-01
   83        1.524730762           1.5232588E-01
   84        1.591535659           1.7251558E-01
   85        1.660987065           1.9537409E-01
   86        1.733212805           2.2127019E-01
   87        1.808350302           2.5062864E-01
   88        1.886547578           2.8393973E-01
   89        1.967964388           3.2177087E-01
   90        2.052773517           3.6478046E-01
   91        2.141162248           4.1373464E-01
   92        2.233334050           4.6952768E-01
   93        2.329510518           5.3320677E-01
   94        2.429933609           6.0600242E-01
   95        2.534868233           6.8936600E-01
   96        2.644605269           7.8501615E-01
   97        2.759465096           8.9499670E-01
   98        2.879801735           1.0217494E+00
   99        3.006007755           1.1682058E+00
  100        3.138520098           1.3379043E+00
  101        3.277827048           1.5351400E+00
  102        3.424476623           1.7651595E+00
  103        3.579086759           2.0344145E+00
  104        3.742357749           2.3508973E+00
  105        3.915087589           2.7245876E+00
  106        4.098191057           3.1680562E+00
  107        4.292723708           3.6972911E+00
  108        4.499912340           4.3328421E+00
  109        4.721194198           5.1014353E+00
  110        4.958268063           6.0382866E+00
  111        5.213161857           7.1904842E+00
  112        5.488323605           8.6220415E+00
  113        5.786746166           1.0421632E+01
  114        6.112141995           1.2714764E+01
  115        6.469194123           1.5683573E+01
  116        6.863927097           1.9600208E+01
  117        7.304274030           2.4885677E+01
  118        7.800979047           3.2219161E+01
  119        8.369105496           4.2754404E+01
  120        9.030714679           5.8583644E+01
  121        9.820009006           8.3839466E+01
  122       10.794287429           1.2769792E+02
  123       12.060965840           2.1434367E+02
  124       13.861196968           4.2815674E+02
  125       16.964479996           1.2930896E+03
     irreducible set of Lebedev Angular points ;
  0.009523809523810  1.000000000000000  0.000000000000000  0.000000000000000
  0.032142857142857  0.577350269189626  0.577350269189626  0.577350269189626
  0.028571428571429  0.459700843380983  0.000000000000000  0.888073833977115
   total no. of   reducible points:  38; test:  1.00000000
  0.012698412698413  1.000000000000000  0.000000000000000  0.000000000000000
  0.022574955908289  0.707106781186547  0.707106781186547  0.000000000000000
  0.021093750000000  0.577350269189626  0.577350269189626  0.577350269189626
  0.020173335537919  0.301511344577764  0.301511344577764  0.904534033733291
   total no. of   reducible points:  50; test:  1.00000000
  0.000513067179734  1.000000000000000  0.000000000000000  0.000000000000000
  0.016604069565742  0.707106781186547  0.707106781186547  0.000000000000000
 -0.029586038961039  0.577350269189626  0.577350269189626  0.577350269189626
  0.026576207082159  0.480384461415261  0.480384461415261  0.733799385705343
  0.016522170993716  0.320772648980776  0.000000000000000  0.947156221362588
   total no. of   reducible points:  74; test:  1.00000000
  0.011544011544012  1.000000000000000  0.000000000000000  0.000000000000000
  0.011943909085856  0.577350269189626  0.577350269189626  0.577350269189626
  0.011110555710603  0.369602846454150  0.369602846454150  0.852518311701268
  0.011876501294537  0.694354006602666  0.694354006602666  0.189063552885395
  0.011812303746904  0.374243039090341  0.000000000000000  0.927330657151172
   total no. of   reducible points:  86; test:  1.00000000
  0.003828270494937  1.000000000000000  0.000000000000000  0.000000000000000
  0.009793737512488  0.577350269189626  0.577350269189626  0.577350269189626
  0.008211737283191  0.185115635344736  0.185115635344736  0.965124035086594
  0.009942814891178  0.690421048382292  0.690421048382292  0.215957291845848
  0.009595471336071  0.395689473055942  0.395689473055942  0.828769981252592
  0.009694996361663  0.478369028812150  0.000000000000000  0.878158910604066
   total no. of   reducible points: 110; test:  1.00000000
  0.000599631368862  1.000000000000000  0.000000000000000  0.000000000000000
  0.007372999718621  0.707106781186547  0.707106781186547  0.000000000000000
  0.007210515360144  0.577350269189626  0.577350269189626  0.577350269189626
  0.007116355493118  0.676441040011426  0.676441040011426  0.291298882209527
  0.006753829486314  0.417496122796545  0.417496122796545  0.807089818359583
  0.007574394159054  0.157467667203908  0.157467667203908  0.974888643677173
  0.006991087353303  0.140355381171318  0.449332832326956  0.882270011260323
   total no. of   reducible points: 146; test:  1.00000000
  0.005544842902037  1.000000000000000  0.000000000000000  0.000000000000000
  0.006071332770671  0.707106781186547  0.707106781186547  0.000000000000000
  0.006383674773515  0.577350269189626  0.577350269189626  0.577350269189626
  0.005183387587748  0.255125262111413  0.255125262111413  0.932642590312691
  0.006317929009814  0.674360146036277  0.674360146036277  0.300793595137701
  0.006201670006589  0.431891069671941  0.431891069671941  0.791795559393492
  0.005477143385137  0.261393136033599  0.000000000000000  0.965232421976448
  0.005968383987681  0.499045316179604  0.144663074432512  0.854415804684659
   total no. of   reducible points: 170; test:  1.00000000
  0.001782340447245  1.000000000000000  0.000000000000000  0.000000000000000
  0.005716905949977  0.707106781186547  0.707106781186547  0.000000000000000
  0.005573383178849  0.577350269189626  0.577350269189626  0.577350269189626
  0.005608704082588  0.671297344269523  0.671297344269523  0.314196994182586
  0.005158237711805  0.289246562757544  0.289246562757544  0.912509096867474
  0.005518771467274  0.444693317871744  0.444693317871744  0.777493219314767
  0.004106777028169  0.129933544765007  0.129933544765007  0.982972302707253
  0.005051846064615  0.345770219761128  0.000000000000000  0.938319218137592
  0.005530248916233  0.159041710538353  0.836036015482459  0.525118572443642
   total no. of   reducible points: 194; test:  1.00000000
 -0.055226399197273  1.000000000000000  0.000000000000000  0.000000000000000
  0.004450274607445  0.577350269189626  0.577350269189626  0.577350269189626
  0.004496841067921  0.449204468739761  0.449204468739761  0.772289253148364
  0.005049153450479  0.252041949021020  0.252041949021020  0.934317778845812
  0.003976408018052  0.698190665844724  0.698190665844724  0.158302205463478
  0.004401400650381  0.658740524346096  0.658740524346096  0.363485684956727
  0.017245443505444  0.040385440500977  0.040385440500977  0.998367683967727
  0.004231083095357  0.582384230971558  0.000000000000000  0.812913653173365
  0.005198069864064  0.354587739051869  0.000000000000000  0.935022745880593
  0.004695720972569  0.227218180899819  0.486466153588665  0.843636521068894
   total no. of   reducible points: 230; test:  1.00000000
 -0.001313769127327  1.000000000000000  0.000000000000000  0.000000000000000
 -0.002522728704859  0.707106781186547  0.707106781186547  0.000000000000000
  0.004186853881701  0.577350269189626  0.577350269189626  0.577350269189626
  0.005315167977811  0.703937339158548  0.703937339158548  0.094575076403713
  0.004047142377086  0.101252624857241  0.101252624857241  0.989694807462905
  0.004112482394407  0.464744872642054  0.464744872642054  0.753673939250816
  0.003595584899759  0.327742065497163  0.327742065497163  0.886098344997499
  0.004256131351428  0.662033866369997  0.662033866369997  0.351315128564633
  0.004229582700647  0.850650808352040  0.000000000000000  0.525731112119134
  0.004080914225781  0.323348454269290  0.115311201100970  0.939227929749916
  0.004071467593831  0.231479015871260  0.524493924092236  0.819343388819120
   total no. of   reducible points: 266; test:  1.00000000
  0.000854591172513  1.000000000000000  0.000000000000000  0.000000000000000
  0.003599119285026  0.577350269189626  0.577350269189626  0.577350269189626
  0.003449788424306  0.351564034557011  0.351564034557011  0.867643624544083
  0.003604822601420  0.656632941021961  0.656632941021961  0.371034178384821
  0.003576729661743  0.472905413258100  0.472905413258100  0.743452042987556
  0.002352101413689  0.096183085226148  0.096183085226148  0.990705621379408
  0.003108953122414  0.221964523629418  0.221964523629418  0.949454317226443
  0.003650045807677  0.701176641608955  0.701176641608955  0.129238672710514
  0.002982344963172  0.264415288706066  0.000000000000000  0.964408914879206
  0.003600820932216  0.571895589187896  0.000000000000000  0.820326419827759
  0.003571540554273  0.251003475177047  0.800072749407395  0.544867737258077
  0.003392312205006  0.123354853258333  0.412772408316853  0.902442529533000
   total no. of   reducible points: 302; test:  1.00000000
  0.003006796749454  1.000000000000000  0.000000000000000  0.000000000000000
  0.003050627745651  0.577350269189626  0.577350269189626  0.577350269189626
  0.001621104600289  0.706896546391232  0.706896546391232  0.024383301669356
  0.003005701484902  0.479468262571203  0.479468262571203  0.734996850587746
  0.002990992529654  0.192753315487802  0.192753315487802  0.962129055136014
  0.002982170644108  0.693035796132712  0.693035796132712  0.198501311223365
  0.002721564237311  0.360830211552009  0.360830211552009  0.860001812127547
  0.003033513795811  0.649848616149617  0.649848616149617  0.394199888605839
  0.003007949555219  0.193294501323034  0.000000000000000  0.981140782843257
  0.002881964603055  0.380049491989930  0.000000000000000  0.924966152698679
  0.002958357626536  0.289955882549957  0.793453785658232  0.535123047718276
  0.003036020026407  0.096841214551040  0.828080150668686  0.552182074349399
  0.002832187403926  0.183343464704166  0.907465826530513  0.378009189874487
   total no. of   reducible points: 350; test:  1.00000000
  0.000526589796822  1.000000000000000  0.000000000000000  0.000000000000000
  0.002548219972003  0.707106781186547  0.707106781186547  0.000000000000000
  0.002512317418927  0.577350269189626  0.577350269189626  0.577350269189626
  0.002530403801186  0.690934630750911  0.690934630750911  0.212646824707552
  0.002014279020919  0.177483605460916  0.177483605460916  0.967987158791473
  0.002501725168403  0.491434263778475  0.491434263778475  0.719016501040843
  0.002513267174598  0.645666470742426  0.645666470742426  0.407712664897770
  0.002302694782227  0.286128901030764  0.286128901030764  0.914472801120872
  0.001462495621595  0.075680843671780  0.075680843671780  0.994255912631278
  0.002445373437313  0.392725976336800  0.392725976336800  0.831584400419232
  0.002417442375639  0.881813287779429  0.000000000000000  0.471598691151316
  0.001910951282180  0.977642811118265  0.000000000000000  0.210272522857307
  0.002416930044325  0.205482369640304  0.868946032287241  0.450233038258263
  0.002512236854563  0.590515704892527  0.799927854385729  0.106801826075805
  0.002496644054553  0.555015236107681  0.771746262691590  0.310428403516654
  0.002236607760438  0.937180985855372  0.334436314534346  0.099217696364292
   total no. of   reducible points: 434; test:  1.00000000
  0.000309512129531  1.000000000000000  0.000000000000000  0.000000000000000
  0.001852379698597  0.577350269189626  0.577350269189626  0.577350269189626
  0.001871790639278  0.704095493822747  0.704095493822747  0.092190407076898
  0.001858812585438  0.680774406645524  0.680774406645524  0.270356088359165
  0.001852028828296  0.637254693925875  0.637254693925875  0.433373868777154
  0.001846715956151  0.504441970780036  0.504441970780036  0.700768575373573
  0.001818471778163  0.421576178401097  0.421576178401097  0.802836877335274
  0.001749564657281  0.331792073647212  0.331792073647212  0.883078727934133
  0.001617210647254  0.238473670142189  0.238473670142189  0.941414158220403
  0.001384737234852  0.145903644915776  0.145903644915776  0.978480583762694
  0.000976433116505  0.060950341155072  0.060950341155072  0.996278129754016
  0.001857161196774  0.611684344200988  0.000000000000000  0.791101929626902
  0.001705153996396  0.396475534819986  0.000000000000000  0.918045287711454
  0.001300321685886  0.172478200990772  0.000000000000000  0.985013335028002
  0.001842866472905  0.561026380862206  0.351828092773352  0.749310611904116
  0.001802658934377  0.474239284255198  0.263471665593795  0.840047488359050
  0.001849830560444  0.598412649788538  0.181664084036021  0.780320742479920
  0.001713904507107  0.379103540769556  0.172079522565688  0.909213475092374
  0.001555213603397  0.277867319058624  0.082130215819325  0.957102074310073
  0.001802239128009  0.503356427107512  0.089992058420749  0.859379855890721
   total no. of   reducible points: 590; test:  1.00000000
  0.000219294208818  1.000000000000000  0.000000000000000  0.000000000000000
  0.001436433617319  0.707106781186547  0.707106781186547  0.000000000000000
  0.001421940344336  0.577350269189626  0.577350269189626  0.577350269189626
  0.000679812351105  0.050872044105024  0.050872044105024  0.997408677652823
  0.000991318423529  0.122819879017883  0.122819879017883  0.984799753572301
  0.001180207833239  0.202689081440879  0.202689081440879  0.958036675983391
  0.001296599602081  0.284774515646429  0.284774515646429  0.915317950483155
  0.001365871427428  0.365671907897803  0.365671907897803  0.855901928697887
  0.001402988604775  0.442826488671347  0.442826488671347  0.779621319527635
  0.001418645563596  0.514061962724974  0.514061962724974  0.686644447264154
  0.001421376741852  0.630640121916680  0.630640121916680  0.452311920313658
  0.001423996475491  0.671688333202261  0.671688333202261  0.312521305001653
  0.001431554042179  0.697979268533688  0.697979268533688  0.160155803498829
  0.000925440149987  0.144686567419531  0.000000000000000  0.989477537495599
  0.001250239995054  0.339026347541122  0.000000000000000  0.940776878793759
  0.001394365843329  0.533580465126351  0.000000000000000  0.845749305193653
  0.001127089094672  0.069440243933494  0.235518789424233  0.969385863498432
  0.001345753760911  0.226900410952946  0.410218247404573  0.883310360522113
  0.001424957283317  0.080255746077753  0.621430241748161  0.779348105702661
  0.001261523341238  0.146799952789657  0.324528434571739  0.934414827052402
  0.001392547106053  0.157150776982473  0.522448218969663  0.838064133458312
  0.001418761677878  0.236570299315725  0.601754663408956  0.762840624604670
  0.001338366684480  0.077148158667657  0.434657551614116  0.897285336132833
  0.001393700862676  0.306293666621073  0.490882658903762  0.815609223203975
  0.001415914757467  0.382247737952479  0.564876814909950  0.731300793659766
   total no. of   reducible points: 770; test:  1.00000000
  0.000143829419053  1.000000000000000  0.000000000000000  0.000000000000000
  0.001125772288287  0.577350269189626  0.577350269189626  0.577350269189626
  0.000494802934195  0.042929635453413  0.042929635453413  0.998155345023847
  0.000735799010913  0.105142685408640  0.105142685408640  0.988883224354686
  0.000888913277130  0.175002486762309  0.175002486762309  0.968890220434707
  0.000988834783892  0.247765337965026  0.247765337965026  0.936602730407163
  0.001053299681709  0.320656712395596  0.320656712395596  0.891267942647606
  0.001092778807015  0.391652074984998  0.391652074984998  0.832596723702352
  0.001114389394063  0.459082587418762  0.459082587418762  0.760582905315251
  0.001123724788052  0.521456388841586  0.521456388841586  0.675400969108414
  0.001125239325244  0.625317024465420  0.625317024465420  0.466858905695743
  0.001126153271816  0.663792674452317  0.663792674452317  0.344613654237438
  0.001130286931124  0.691041039849830  0.691041039849830  0.211954151850184
  0.001134986534364  0.705290700745776  0.705290700745776  0.071624401449956
  0.000682336792711  0.123668676265799  0.000000000000000  0.992323565431490
  0.000945415816045  0.294077711446839  0.000000000000000  0.955781512496548
  0.001074429975386  0.469775384920765  0.000000000000000  0.882785980701182
  0.001129300086569  0.633456324113957  0.000000000000000  0.773778447257375
  0.000843688450090  0.059740486141813  0.202912875277752  0.977372722845310
  0.001075255720449  0.137576040847364  0.460262194248405  0.877058461865803
  0.001108577236864  0.339101652633629  0.503067399966204  0.794942299964208
  0.000956647532378  0.127167519143982  0.281760642244213  0.951020169374390
  0.001080663250717  0.269312074041351  0.433156129172016  0.860143461601762
  0.001126797131196  0.141978645260192  0.625616735858081  0.767102186220558
  0.001022568715358  0.067092846007383  0.379839521685916  0.922616110730809
  0.001108960267713  0.070577381832562  0.551750542142352  0.831017552413474
  0.001122790653436  0.278388847788215  0.602961915615919  0.747620610834086
  0.001032401847117  0.197957893891741  0.358960632958910  0.912118378409121
  0.001107249382284  0.208730706110327  0.534866643813548  0.818748536281022
  0.001121780048520  0.405512213787284  0.567499754607437  0.716591845467024
   total no. of   reducible points: 974; test:  1.00000000
  0.000110518923327  1.000000000000000  0.000000000000000  0.000000000000000
  0.000920523273809  0.707106781186547  0.707106781186547  0.000000000000000
  0.000913315978644  0.577350269189626  0.577350269189626  0.577350269189626
  0.000369042189802  0.037126364496571  0.037126364496571  0.998620681799919
  0.000560399092868  0.091400604122622  0.091400604122622  0.991610739722014
  0.000686529762928  0.153107785246991  0.153107785246991  0.976276606394685
  0.000772033855115  0.218092889166061  0.218092889166061  0.951247067480579
  0.000830154595889  0.283987453220018  0.283987453220018  0.915806886208668
  0.000868669255018  0.349117760096376  0.349117760096376  0.869616915181954
  0.000892707628585  0.412143146144431  0.412143146144431  0.812573722299916
  0.000906082023857  0.471899362714913  0.471899362714913  0.744729469632107
  0.000911977725494  0.527314545284234  0.527314545284234  0.666242253736104
  0.000912872013860  0.620947533244402  0.620947533244402  0.478380938076952
  0.000913071493569  0.656972271185729  0.656972271185729  0.369830866459426
  0.000915287378455  0.684178830907014  0.684178830907014  0.252583955700718
  0.000918743627432  0.701260433012363  0.701260433012363  0.128326186659723
  0.000517697731297  0.107238221547817  0.000000000000000  0.994233354821322
  0.000733114368210  0.258206895949697  0.000000000000000  0.966089643296119
  0.000846323283638  0.417275295530672  0.000000000000000  0.908780131681911
  0.000903112269425  0.570036691179250  0.000000000000000  0.821619237061433
  0.000648577845316  0.982798601826395  0.177177402261533  0.052106394770113
  0.000743503091098  0.962424923032623  0.247571646342629  0.111564095715648
  0.000799852789184  0.940200799412881  0.335461628906649  0.059058888532354
  0.000810173149747  0.932082204014320  0.317361524661198  0.174655167757863
  0.000848338957459  0.904367419939330  0.409026842708536  0.121723505109599
  0.000855629925731  0.891240756007475  0.385429115066922  0.239027847938172
  0.000880320867974  0.867643562846271  0.493222118485128  0.062662506241542
  0.000881104818243  0.858197998604162  0.478532067592243  0.185750519454734
  0.000885028234127  0.839675362404986  0.450742259315706  0.302946697352898
  0.000902134229904  0.816528856402219  0.563212302076210  0.126777480068428
  0.000901009167711  0.801546937078353  0.543430356969390  0.249411216236224
  0.000902269293843  0.777356306907035  0.512351848641987  0.364983226059765
  0.000915801617469  0.766162121390039  0.639427963474910  0.064245492242208
  0.000913157800319  0.755358414353351  0.626980550902439  0.190601822277923
  0.000910781357948  0.734430575755950  0.603116169309631  0.311227594714961
  0.000910576025897  0.704383718402177  0.569370249846844  0.423864478152234
   total no. of   reducible points:1202; test:  1.00000000
  0.000077771607433  1.000000000000000  0.000000000000000  0.000000000000000
  0.000755764641300  0.577350269189626  0.577350269189626  0.577350269189626
  0.000284163380609  0.032292906634139  0.032292906634139  0.998956623864238
  0.000437441912705  0.080367332714622  0.080367332714622  0.993520097262594
  0.000541717474087  0.135428996053165  0.135428996053165  0.981487633165117
  0.000614800089136  0.193896386111443  0.193896386111443  0.961669580940275
  0.000666439448580  0.253734371501127  0.253734371501127  0.933401166400522
  0.000702503935692  0.313525143475257  0.313525143475257  0.896328047546008
  0.000726851178925  0.372155833937534  0.372155833937534  0.850294108254619
  0.000742263753421  0.428680957519570  0.428680957519570  0.795276853253136
  0.000750954503584  0.482251012828299  0.482251012828299  0.731346649169981
  0.000754853505772  0.532067933356626  0.532067933356626  0.658640591360127
  0.000755408896977  0.617299819539427  0.617299819539427  0.487731345715221
  0.000755314717444  0.651067984912748  0.651067984912748  0.390155043595885
  0.000756476765329  0.677731525168736  0.677731525168736  0.285236672931301
  0.000758799180852  0.696310941064874  0.696310941064874  0.174075117999957
  0.000760826183203  0.705893500983175  0.705893500983175  0.058555363028785
  0.000402168044787  0.995554619409186  0.000000000000000  0.094185985013862
  0.000580487179395  0.973411590179421  0.000000000000000  0.229063039585986
  0.000679215195595  0.927569373238863  0.000000000000000  0.373650983980055
  0.000733674121129  0.856802242279510  0.000000000000000  0.515645147000147
  0.000758186630099  0.762349555371937  0.000000000000000  0.647165477620840
  0.000753825785980  0.570752290889222  0.438702803988950  0.694104943230444
  0.000748351724705  0.519646338840308  0.385890841476262  0.762270254565011
  0.000737176366111  0.464633753121535  0.330193737234385  0.821637128756598
  0.000718344889576  0.406390169755769  0.272542357356378  0.872105322408083
  0.000689581552982  0.345632946664309  0.213951023749525  0.913653558859526
  0.000648010580179  0.283139512105033  0.155592230978665  0.946373644151191
  0.000589755889659  0.219768202292533  0.098928789796861  0.970523071240677
  0.000509570884925  0.156469609865035  0.045986429106755  0.986611630545015
  0.000753690642891  0.602735667372129  0.337662514017343  0.722975616397235
  0.000747250596558  0.549603232025510  0.282230130972799  0.786309379645309
  0.000734301713228  0.492170775523457  0.224863234259254  0.840954489612314
  0.000713087158218  0.430942299859848  0.166622472345648  0.886862833757808
  0.000681702203211  0.366410818231367  0.108696490182217  0.924082347686118
  0.000638094114560  0.299018905775844  0.052519897841201  0.952800794667682
  0.000755038137792  0.626872401314500  0.229752365755002  0.744476220506856
  0.000747864664014  0.570732414483461  0.172308060709380  0.802853936449496
  0.000733591872060  0.509636090196037  0.114023846539051  0.852801042441985
  0.000711012052766  0.443872993831246  0.056115220958825  0.894330949550573
  0.000757136397869  0.641997847108239  0.116417442314087  0.757816431224233
  0.000748990832908  0.581721806180261  0.057975895314452  0.811319009870262
   total no. of   reducible points:1454; test:  1.00000000
  qrot: 

              1        2        3      
    1    1.0000   0.0000   0.0000
    2    0.0000   1.0000   0.0000
    3    0.0000   0.0000   1.0000
  me                     0   done genpts
  me                     2   done genpts
  me                     5   done genpts
  me                     6   done genpts
  me                     1   done genpts
  me                     3   done genpts
  me                     4   done genpts
  me                     7   done genpts
  me                     0   done uprt
  me                     1   done uprt
  me                     2   done uprt
  me                     3   done uprt
  me                     4   done uprt
  me                     5   done uprt
  me                     6   done uprt
  me                     7   done uprt
  me                     0  done mem
  me                     1  done mem
  me                     2  done mem
  me                     3  done mem
  me                     4  done mem
  me                     5  done mem
  me                     6  done mem
  me                     7  done mem
  dftinpanae: itol2e                     8  iaoacc                    14  tol_rho    1.0000000000000000E-010

            General Information
            -------------------
          SCF calculation type: DFT
          Wavefunction type:  spin polarized.
          No. of atoms     :     1
          No. of electrons :    17
           Alpha electrons :     9
            Beta electrons :     8
          Charge           :     0
          Spin multiplicity:     2
          Use of symmetry is: off; symmetry adaption is: off
          Maximum number of iterations:  50
          AO basis - number of functions:    59
                     number of shells:    16
          Convergence on energy requested:  1.00D-06
          Convergence on density requested:  1.00D-05
          Convergence on gradient requested:  5.00D-04

              XC Information
              --------------
                     Hartree-Fock (Exact) Exchange  1.000          
                     LC-wPBE(h)Exchange Functional  1.000          
            Perdew 1991 LDA Correlation Functional  1.000 local    
           PerdewBurkeErnz. Correlation Functional  1.000 non-local

           Range-Separation Parameters        
           ---------------------------
           Alpha           :  0.00
           Beta            :  1.00
           Gamma           :  0.40
           Short-Range HF  :     F

             Grid Information
             ----------------
          Grid used for XC integration:  xfine     
          Radial quadrature: Mura-Knowles        
          Angular quadrature: Lebedev. 
          Tag              B.-S. Rad. Rad. Pts. Rad. Cut. Ang. Pts.
          ---              ---------- --------- --------- ---------
          Cl                  1.00      125           9.0      1454
          Grid pruning is: on 
          Number of quadrature shells:   125
          Spatial weights used:  Erf1

          Convergence Information
          -----------------------
          Convergence aids based upon iterative change in 
          total energy or number of iterations. 
          Levelshifting, if invoked, occurs when the 
          HOMO/LUMO gap drops below (HL_TOL):  1.00D-02
          DIIS, if invoked, will attempt to extrapolate 
          using up to (NFOCK): 10 stored Fock matrices.

                    Damping( 0%)  Levelshifting(0.5)       DIIS
                  --------------- ------------------- ---------------
          dE  on:    start            ASAP                start   
          dE off:    2 iters         50 iters            50 iters 


      Screening Tolerance Information
      -------------------------------
          Density screening/tol_rho:  1.00D-10
          AO Gaussian exp screening on grid/accAOfunc:  14
          CD Gaussian exp screening on grid/accCDfunc:  20
          XC Gaussian exp screening on grid/accXCfunc:  20
          Schwarz screening/accCoul:  1.00D-08



                         Geometry "geometry" -> "geometry"
                         ---------------------------------

 Output coordinates in angstroms (scale by  1.889725989 to convert to a.u.)

  No.       Tag          Charge          X              Y              Z
 ---- ---------------- ---------- -------------- -------------- --------------
    1 Cl                  17.0000     0.00000000     0.00000000     0.00000000

      Atomic Mass 
      ----------- 

      Cl                34.968850


 Effective nuclear repulsion energy (a.u.)       0.0000000000

            Nuclear Dipole moment (a.u.) 
            ----------------------------
        X                 Y               Z
 ---------------- ---------------- ----------------
     0.0000000000     0.0000000000     0.0000000000

  
  CAM type calculations without CDFIT are
  only available with the direct option.
  Forcing Direct SCF
  


     <<<<<<    Before call to DFT_SCF.    >>>>>>
     <<<<<< date:  Apr 24  time: 11:12:36 >>>>>>


 Setting tolerance for linear dependence to 1.00D-05







 Setting tolerance for linear dependence to 1.00D-05
 Setting tolerance for linear dependence to 1.00D-05
 Setting tolerance for linear dependence to 1.00D-05
 Setting tolerance for linear dependence to 1.00D-05
 Setting tolerance for linear dependence to 1.00D-05
 Setting tolerance for linear dependence to 1.00D-05
 Setting tolerance for linear dependence to 1.00D-05
  lindep tolerance =    1.0000000000000001E-005
  lindep tolerance =    1.0000000000000001E-005
  lindep tolerance =    1.0000000000000001E-005
  lindep tolerance =    1.0000000000000001E-005
  lindep tolerance =    1.0000000000000001E-005
  lindep tolerance =    1.0000000000000001E-005
  lindep tolerance =    1.0000000000000001E-005
  lindep tolerance =    1.0000000000000001E-005


     <<<<<<    Before 3c-2e initialize.   >>>>>>
     <<<<<< date:  Apr 24  time: 11:12:36 >>>>>>


 Setting fock-build task_bf   :      -1
                    maxquartet:   10000
                    maxeri    :  129600
                    maxscr    :       0
                    intacc    : 0.0D+00
                    denscreen : T
                    dentol    : 1.0D-06


      Superposition of Atomic Density Guess
      -------------------------------------

 Sum of atomic energies:        -459.48661134

      Non-variational initial energy
      ------------------------------

 Total energy =    -459.280998
 1-e energy   =    -634.872072
 2-e energy   =     175.591075
 HOMO         =      -0.427440
 LUMO         =       0.090691


 Setting fock-build task_bf   :      -1
                    maxquartet:   10000
                    maxeri    :  129600
                    maxscr    :       0
                    intacc    : 0.0D+00
                    denscreen : T
                    dentol    : 1.0D-06


 Wrote molecular orbitals to ./cl.movecs

  WARNING: movecs_in_org=atomic not equal to movecs_in=./cl.movecs
   Time after variat. SCF:      0.8

 Setting fock-build task_bf   :      -1
                    maxquartet:   10000
                    maxeri    :  129600
                    maxscr    :       0
                    intacc    : 0.0D+00
                    denscreen : T
                    dentol    : 1.0D-06

   Time prior to 1st pass:      0.8


     <<<<<<      Before SCF iter loop.    >>>>>>
     <<<<<< date:  Apr 24  time: 11:12:36 >>>>>>

           DAMPING=T LEVELSHIFTING=F DIISING=T
          itol2e= 8 iAOacc=12 iXCacc=20


     <<<<<<            calling 1-e int    >>>>>>
     <<<<<< date:  Apr 24  time: 11:12:36 >>>>>>

    Kinetic Matrix Time:          0.0s

           Kinetic energy =    459.103928438130

    Potential Matrix Time:          0.0s


     <<<<<<    Before call to GETVXC.     >>>>>>
     <<<<<< date:  Apr 24  time: 11:12:36 >>>>>>



     <<<<<<    Before call to fock_2e.    >>>>>>
     <<<<<< date:  Apr 24  time: 11:12:36 >>>>>>



     <<<<<<     After call to fock_2e.    >>>>>>
     <<<<<< date:  Apr 24  time: 11:12:37 >>>>>>

    Fock_2e Build Time:          0.2s
  *** grid_quadv0:                    calc_type:                    1
  *** grid_quadv0:                    grid_written: F
  *** grid_quadv0:                    grad: T
  *** grid_quadv0:                    kske: F
  *** grid_quadv0:                    kslap: F
  *** grid_quadv0:                    do_scf: T
  *** grid_quadv0:                    fde_option:                    0
  *** grid_quadv0:                    n_per_rec:                 3070
  *** grid_quadv0:                    calc_type:                    1
  *** grid_quadv0:                    grid_written: F
  *** grid_quadv0:                    grad: T
  *** grid_quadv0:                    kske: F
  *** grid_quadv0:                    kslap: F
  *** grid_quadv0:                    do_scf: T
  *** grid_quadv0:                    fde_option:                    0
  *** grid_quadv0:                    n_per_rec:                 3070
  *** grid_quadv0:                    calc_type:                    1
  *** grid_quadv0:                    grid_written: F
  *** grid_quadv0:                    grad: T
  *** grid_quadv0:                    kske: F
  *** grid_quadv0:                    kslap: F
  *** grid_quadv0:                    do_scf: T
  *** grid_quadv0:                    fde_option:                    0
  *** grid_quadv0:                    n_per_rec:                 3070
  *** grid_quadv0:                    calc_type:                    1
  *** grid_quadv0:                    grid_written: F
  *** grid_quadv0:                    grad: T
  *** grid_quadv0:                    kske: F
  *** grid_quadv0:                    kslap: F
  *** grid_quadv0:                    do_scf: T
  *** grid_quadv0:                    fde_option:                    0
  *** grid_quadv0:                    n_per_rec:                 3070
  *** grid_quadv0:                    calc_type:                    1
  *** grid_quadv0:                    grid_written: F
  *** grid_quadv0:                    grad: T
  *** grid_quadv0:                    kske: F
  *** grid_quadv0:                    kslap: F
  *** grid_quadv0:                    do_scf: T
  *** grid_quadv0:                    fde_option:                    0
  *** grid_quadv0:                    n_per_rec:                 3070
  *** grid_quadv0:                    calc_type:                    1
  *** grid_quadv0:                    grid_written: F
  *** grid_quadv0:                    grad: T
  *** grid_quadv0:                    kske: F
  *** grid_quadv0:                    kslap: F
  *** grid_quadv0:                    do_scf: T
  *** grid_quadv0:                    fde_option:                    0
  *** grid_quadv0:                    n_per_rec:                 3070
  *** grid_quadv0:                    calc_type:                    1
  *** grid_quadv0:                    grid_written: F
  *** grid_quadv0:                    grad: T
  *** grid_quadv0:                    kske: F
  *** grid_quadv0:                    kslap: F
  *** grid_quadv0:                    do_scf: T
  *** grid_quadv0:                    fde_option:                    0
  *** grid_quadv0:                    n_per_rec:                 3070
  *** grid_quadv0:                    calc_type:                    1
  *** grid_quadv0:                    grid_written: F
  *** grid_quadv0:                    grad: T
  *** grid_quadv0:                    kske: F
  *** grid_quadv0:                    kslap: F
  *** grid_quadv0:                    do_scf: T
  *** grid_quadv0:                    fde_option:                    0
  *** grid_quadv0:                    n_per_rec:                 3070
   0: nuse=   8 avail= 12500000Mb on .
   1: nuse=   8 avail= 12500000Mb on .
   2: nuse=   8 avail= 12500000Mb on .
   3: nuse=   8 avail= 12500000Mb on .
   4: nuse=   8 avail= 12500000Mb on .
   5: nuse=   8 avail= 12500000Mb on .
   6: nuse=   8 avail= 12500000Mb on .
   7: nuse=   8 avail= 12500000Mb on .
 l_cube input   11.00

  atom type   l_cube   no. cubes   segmts   rad   sub
 ----------- -------- ----------- -------- ----- -----
        1     11.33        34         3      17     8

 Grid_pts file          = ./cl.gridpts.0
 Record size in doubles =  12289        No. of grid_pts per rec  =   3070
 Max. records in memory =     10        Max. recs in file   = 126656358

 me   0 NQTOTC NQ/cube   16597     790
 me   1 NQTOTC NQ/cube    8920    8920
 me   2 NQTOTC NQ/cube    9687    9687
 me   3 NQTOTC NQ/cube    8920    8920
 me   4 NQTOTC NQ/cube    8008    2669
 me   5 NQTOTC NQ/cube    9984    2496
 me   6 NQTOTC NQ/cube    9698    4849
 me   7 NQTOTC NQ/cube    8920    8920

 XC quadr. integrated density :      17.000000 npts:    80634 nctrs:        1

    Fock_xc Build Time:          0.1s


     <<<<<<    Before call to GETVCOUL.   >>>>>>
     <<<<<< date:  Apr 24  time: 11:12:37 >>>>>>



     <<<<<<    End of parallel region.    >>>>>>
     <<<<<< date:  Apr 24  time: 11:12:37 >>>>>>

    Total Fock Matrix Build Time:          0.3s
 Etnew, Ecore, Ecoul, Exc(1), Exc(2), Totsic:   -459.99873263875270       -634.29957769310147        202.30953726999925       -28.008692215650502        0.0000000000000000        0.0000000000000000     
  delta =   -459.99873263875270     
  delta =   -459.99873263875270     
  delta =   -459.99873263875270     
  delta =   -459.99873263875270     


         Total DFT energy =     -459.998732638753
      One electron energy =     -634.299577693101
           Coulomb energy =      202.309537269999
    Exchange-Corr. energy =      -28.008692215651
 Nuclear repulsion energy =        0.000000000000

 Numeric. integr. density =       16.999999999601

     Total iterative time =      2.1s


  delta =   -459.99873263875270     
  delta =   -459.99873263875270     
  delta =   -459.99873263875270     
  delta =   -459.99873263875270     


     <<<<<<        calling diis driver    >>>>>>
     <<<<<< date:  Apr 24  time: 11:12:37 >>>>>>

 nhist                     1  pulay matrix 
   0.0000E+00
  -1.0000E+00   1.6491E-01


     <<<<<<         called diis driver    >>>>>>
     <<<<<< date:  Apr 24  time: 11:12:37 >>>>>>


 global array: fock transf[1:59,1:59],  handle: -940 

            1           2           3           4           5           6  
       ----------- ----------- ----------- ----------- ----------- -----------
   1       4.32692    -0.00000     0.00000     0.00000     1.41957    -0.00000
   2      -0.00000     4.74865    -0.00911     0.00557     0.00000     0.41436
   3       0.00000    -0.00911     4.73916     0.00919    -0.00000     0.93675
   4       0.00000     0.00557     0.00919     4.74855    -0.00000    -0.74373
   5       1.41957     0.00000    -0.00000    -0.00000     6.47296     0.00000
   6      -0.00000     0.41436     0.93675    -0.74373     0.00000     1.90751
   7       0.00000     1.12737    -0.58652    -0.10756    -0.00000    -0.00118
   8       0.00000    -0.42271    -0.62469    -1.02815    -0.00000     0.00251
   9       0.76429    -0.00000     0.00000     0.00000     1.27750    -0.00000
  10      -0.00000    -0.00026    -0.00016    -0.00043    -0.00000     0.00011
  11      -1.31425    -0.00000     0.00000     0.00000    -0.71941    -0.00000
  12       0.00000    -0.00176     0.00088    -0.00033    -0.00000     0.00063
  13      -0.00000    -0.00088    -0.00265    -0.00352    -0.00000     0.00020
  14       0.00000    -0.00353     0.00192    -0.00045    -0.00000     0.00114
  15       0.00000    -0.03781    -0.06472     0.04233    -0.00000     0.52313
  16       0.00000     0.07824    -0.00907     0.05550    -0.00000     0.07430
  17      -0.00000    -0.03672     0.06371     0.06221     0.00000     0.01105
  18       0.00024     0.00000     0.00000    -0.00000     0.00090    -0.00000
  19      -0.00004     0.00000     0.00000    -0.00000    -0.00016    -0.00000
  20       0.00004    -0.00000     0.00000    -0.00000     0.00017    -0.00000
  21       0.00000    -0.00007    -0.00005    -0.00012    -0.00000     0.00003
  22       0.00184    -0.00000     0.00000     0.00000     0.00702    -0.00000
  23      -0.00154    -0.00000     0.00000     0.00000    -0.00589    -0.00000
  24       0.00000     0.19147     0.58883    -0.23226    -0.00000     1.05808
  25       0.00000    -0.63250     0.21244     0.00947    -0.00000    -0.09331
  26      -0.00000    -0.08412    -0.22120    -0.62402     0.00000     0.29136
  27       0.00000     0.00081    -0.00082    -0.00031     0.00000    -0.00026
  28       0.00000     0.00034    -0.00029    -0.00007    -0.00000    -0.00009
  29      -0.00000    -0.00073    -0.00039    -0.00096     0.00000     0.00019
  30       0.00001     0.00000    -0.00000     0.00000     0.00003     0.00000
  31       0.00001    -0.00000     0.00000    -0.00000     0.00003    -0.00000
  32       0.00014    -0.00000    -0.00000     0.00000     0.00034     0.00000
  33      -0.00000    -0.01692    -0.08096     0.06236     0.00000    -0.09250
  34      -0.00000    -0.08648    -0.02464    -0.06001     0.00000    -0.01042
  35      -0.00000     0.06136    -0.06320    -0.06312     0.00000     0.00958
  36       0.02032     0.00000    -0.00000    -0.00000     0.48535     0.00000
  37       0.00000     0.00580    -0.01812    -0.01913    -0.00000    -0.00057
  38       0.00000     0.02192    -0.00758     0.01376    -0.00000     0.01811
  39      -0.00000    -0.01621    -0.02188     0.01481     0.00000     0.07523
  40       0.00099     0.00000    -0.00000    -0.00000     0.00236     0.00000
  41       0.00100    -0.00000     0.00000     0.00000     0.00238    -0.00000
  42      -0.00000     0.00000     0.00000    -0.00000    -0.00006    -0.00000
  43      -0.00000    -0.00000     0.00000    -0.00000    -0.00003    -0.00000
  44       0.00000    -0.00000    -0.00000    -0.00000     0.00003     0.00000
  45       0.05730     0.00000    -0.00000    -0.00000    -0.17638     0.00000
  46       0.00000     0.04109    -0.04983    -0.01391    -0.00000    -0.02899
  47      -0.00000     0.03551     0.01407     0.05419     0.00000    -0.01748
  48      -0.00000    -0.03589    -0.03585     0.03317     0.00000    -0.11309
  49       0.00003    -0.00000     0.00000     0.00000     0.00042    -0.00000
  50      -0.00005    -0.00000     0.00000     0.00000    -0.00059    -0.00000
  51      -0.13683     0.00000    -0.00000    -0.00000     0.04994     0.00000
  52       0.00000     0.03693    -0.05618    -0.04799    -0.00000    -0.00071
  53      -0.00000    -0.01338    -0.05645     0.05605     0.00000    -0.05870
  54       0.00000    -0.07214    -0.01654    -0.03605    -0.00000    -0.01171
  55      -0.05266     0.00000    -0.00000    -0.00000    -0.31663     0.00000
  56      -0.00000    -0.00280    -0.04456    -0.02472     0.00000    -0.01619
  57      -0.00000     0.02291     0.01824    -0.04009     0.00000     0.03734
  58       0.00000    -0.04559     0.01396    -0.01985    -0.00000     0.00563
  59       0.03937     0.00000    -0.00000    -0.00000     0.13826     0.00000

            7           8           9          10          11          12  
       ----------- ----------- ----------- ----------- ----------- -----------
   1       0.00000     0.00000     0.76429    -0.00000    -1.31425     0.00000
   2       1.12737    -0.42271    -0.00000    -0.00026    -0.00000    -0.00176
   3      -0.58652    -0.62469     0.00000    -0.00016     0.00000     0.00088
   4      -0.10756    -1.02815     0.00000    -0.00043     0.00000    -0.00033
   5      -0.00000    -0.00000     1.27750    -0.00000    -0.71941    -0.00000
   6      -0.00118     0.00251    -0.00000     0.00011    -0.00000     0.00063
   7       1.92046     0.00024     0.00000    -0.00027     0.00000    -0.00485
   8       0.00024     1.92013     0.00000     0.00115     0.00000     0.00083
   9       0.00000     0.00000     2.14449     0.00000    -2.60307    -0.00000
  10      -0.00027     0.00115     0.00000     2.36592     0.00000     0.00000
  11       0.00000     0.00000    -2.60307     0.00000     5.12665    -0.00000
  12      -0.00485     0.00083    -0.00000     0.00000    -0.00000     2.36769
  13       0.00172     0.01000     0.00000     0.00001    -0.00000    -0.00067
  14      -0.00869     0.00142     0.00000     0.00000     0.00000     0.00088
  15       0.04685    -0.05929     0.00000    -0.00009     0.00000     0.00016
  16      -0.37156     0.35838     0.00000     0.00179     0.00000     0.00801
  17       0.36317     0.37422    -0.00000     0.00116    -0.00000    -0.00591
  18      -0.00000     0.00000     0.00065     0.00000     0.00033    -0.00000
  19      -0.00000     0.00000    -0.00011     0.00000    -0.00006     0.00000
  20       0.00000    -0.00000     0.00012    -0.00000     0.00006     0.00000
  21      -0.00007     0.00029    -0.00000     0.71488     0.00000    -0.00000
  22       0.00000     0.00000     0.00508     0.00000     0.00257     0.00000
  23       0.00000     0.00000    -0.00425    -0.00000    -0.00215     0.00000
  24      -0.13577    -0.27545     0.00000     0.00001     0.00000    -0.00016
  25      -1.09612     0.16347     0.00000    -0.00002     0.00000    -0.00074
  26       0.13344     1.06528    -0.00000    -0.00005    -0.00000     0.00016
  27       0.00231     0.00079     0.00000    -0.00000    -0.00000    -0.48895
  28       0.00079     0.00015    -0.00000     0.00000    -0.00000     0.48753
  29      -0.00077     0.00244     0.00000    -0.00002    -0.00000     0.18779
  30      -0.00000     0.00000     0.00003     0.00000    -0.00006     0.00000
  31       0.00000    -0.00000     0.00003    -0.00000    -0.00005     0.00000
  32       0.00000    -0.00000     0.00039    -0.00000    -0.00071     0.00000
  33       0.01502    -0.00442    -0.00000     0.00008    -0.00000     0.00068
  34      -0.05383     0.07980    -0.00000    -0.00043    -0.00000    -0.00157
  35       0.07941     0.05506    -0.00000    -0.00018    -0.00000     0.00203
  36      -0.00000    -0.00000     0.40429     0.00000     0.29982    -0.00000
  37      -0.04344    -0.06407     0.00000    -0.00084     0.00000     0.00193
  38      -0.06239     0.04220     0.00000     0.00090     0.00000     0.00451
  39       0.01488    -0.00968    -0.00000    -0.00010    -0.00000    -0.00041
  40      -0.00000    -0.00000     0.00270     0.00000    -0.00492     0.00000
  41       0.00000     0.00000     0.00272     0.00000    -0.00497    -0.00000
  42       0.00000    -0.00000     0.00014     0.00000    -0.00051    -0.00000
  43       0.00000    -0.00000     0.00007     0.00000    -0.00026    -0.00000
  44       0.00000    -0.00000    -0.00008     0.00000     0.00029    -0.00000
  45      -0.00000    -0.00000     0.54785    -0.00000    -1.95470    -0.00000
  46       0.10756     0.03948     0.00000     0.00011     0.00000    -0.00334
  47       0.03628    -0.11122    -0.00000    -0.00109    -0.00000    -0.00212
  48      -0.03336     0.00599    -0.00000     0.00003    -0.00000     0.00060
  49       0.00000     0.00000    -0.00101    -0.00000     0.00366    -0.00000
  50       0.00000     0.00000     0.00141    -0.00000    -0.00513    -0.00000
  51      -0.00000    -0.00000    -0.24689    -0.00000     0.94968    -0.00000
  52       0.04230     0.03647     0.00000     0.00050     0.00000    -0.00237
  53       0.00570    -0.00845    -0.00000    -0.00028    -0.00000    -0.00111
  54      -0.03613     0.04142     0.00000     0.00091     0.00000     0.00305
  55      -0.00000    -0.00000     0.03117    -0.00000    -0.47601     0.00000
  56       0.01597     0.03413    -0.00000     0.00056    -0.00000    -0.00072
  57       0.01244     0.01257    -0.00000     0.00025    -0.00000    -0.00028
  58      -0.03602     0.01941     0.00000     0.00054     0.00000     0.00289
  59      -0.00000    -0.00000     0.05327     0.00000     0.05210     0.00000

           13          14          15          16          17          18  
       ----------- ----------- ----------- ----------- ----------- -----------
   1      -0.00000     0.00000     0.00000     0.00000    -0.00000     0.00024
   2      -0.00088    -0.00353    -0.03781     0.07824    -0.03672     0.00000
   3      -0.00265     0.00192    -0.06472    -0.00907     0.06371     0.00000
   4      -0.00352    -0.00045     0.04233     0.05550     0.06221    -0.00000
   5      -0.00000    -0.00000    -0.00000    -0.00000     0.00000     0.00090
   6       0.00020     0.00114     0.52313     0.07430     0.01105    -0.00000
   7       0.00172    -0.00869     0.04685    -0.37156     0.36317    -0.00000
   8       0.01000     0.00142    -0.05929     0.35838     0.37422     0.00000
   9       0.00000     0.00000     0.00000     0.00000    -0.00000     0.00065
  10       0.00001     0.00000    -0.00009     0.00179     0.00116     0.00000
  11      -0.00000     0.00000     0.00000     0.00000    -0.00000     0.00033
  12      -0.00067     0.00088     0.00016     0.00801    -0.00591    -0.00000
  13       2.36595     0.00044    -0.00012     0.01025     0.01510    -0.00000
  14       0.00044     2.36434     0.00029     0.01278    -0.00839     0.00000
  15      -0.00012     0.00029     2.14296     0.00012    -0.00050     0.00000
  16       0.01025     0.01278     0.00012     2.16296     0.00000    -0.00000
  17       0.01510    -0.00839    -0.00050     0.00000     2.16291     0.00000
  18      -0.00000     0.00000     0.00000    -0.00000     0.00000     1.71202
  19       0.00000     0.00000     0.00000    -0.00000     0.00000     0.00056
  20       0.00000     0.00000     0.00000     0.00000     0.00000    -0.00410
  21      -0.00002    -0.00001    -0.00005     0.00096     0.00062     0.00000
  22      -0.00000     0.00000     0.00000     0.00000    -0.00000    -0.00104
  23       0.00000     0.00000     0.00000     0.00000    -0.00000    -0.00012
  24      -0.00047     0.00003    -0.08624    -0.00446     0.02411     0.00000
  25       0.00012    -0.00010     0.01655    -0.07533     0.05514    -0.00000
  26      -0.00060    -0.00014    -0.01339    -0.05793    -0.07360     0.00000
  27       0.32066    -0.41174    -0.00025    -0.00436     0.00830     0.00000
  28       0.07656    -0.51658    -0.00008    -0.00154     0.00211     0.00000
  29       0.63405     0.27102    -0.00010     0.00855     0.00462    -0.00000
  30       0.00000    -0.00000     0.00000    -0.00000    -0.00000    -0.11127
  31       0.00000    -0.00000     0.00000     0.00000     0.00000    -0.01271
  32       0.00000     0.00000    -0.00000     0.00000    -0.00000     0.70775
  33       0.00099     0.00086     0.69410     0.20341    -0.04260    -0.00000
  34      -0.00269    -0.00218     0.18769    -0.69798    -0.14935    -0.00000
  35      -0.00294     0.00203    -0.07825     0.13230    -0.72240     0.00000
  36       0.00000    -0.00000    -0.00000    -0.00000     0.00000     0.00225
  37      -0.00959     0.00394     0.00219    -0.00955    -0.05536     0.00000
  38       0.00423     0.00844     0.00712     0.05519    -0.00923    -0.00000
  39      -0.00107    -0.00077     0.07288    -0.00475     0.00420     0.00000
  40      -0.00000    -0.00000    -0.00000    -0.00000     0.00000    -0.00047
  41       0.00000     0.00000     0.00000     0.00000    -0.00000     0.00001
  42       0.00000     0.00000     0.00000     0.00000     0.00000    -0.01219
  43      -0.00000    -0.00000     0.00000     0.00000     0.00000    -0.00661
  44       0.00000    -0.00000    -0.00000     0.00000    -0.00000     0.01308
  45       0.00000     0.00000    -0.00000    -0.00000     0.00000     0.00006
  46       0.00461    -0.00749    -0.00693    -0.00856     0.01599     0.00000
  47      -0.00816    -0.00387    -0.00150    -0.01652    -0.00871    -0.00000
  48       0.00061     0.00137    -0.03899     0.00144    -0.00478     0.00000
  49      -0.00000     0.00000     0.00000     0.00000    -0.00000     0.00005
  50      -0.00000     0.00000     0.00000     0.00000    -0.00000     0.00018
  51      -0.00000     0.00000    -0.00000    -0.00000     0.00000     0.00014
  52       0.00711    -0.00547     0.00743     0.02568    -0.27651    -0.00000
  53      -0.00079    -0.00216     0.24159     0.08969     0.01346     0.00000
  54       0.00589     0.00599     0.08422    -0.26171    -0.02255     0.00000
  55       0.00000    -0.00000    -0.00000    -0.00000     0.00000    -0.00132
  56       0.00638    -0.00200     0.01409    -0.01093    -0.03899    -0.00000
  57       0.00197    -0.00086    -0.02463    -0.00498    -0.01859     0.00000
  58       0.00221     0.00600    -0.00002    -0.04325     0.01195    -0.00000
  59       0.00000    -0.00000    -0.00000    -0.00000     0.00000    -0.00020

           19          20          21          22          23          24  
       ----------- ----------- ----------- ----------- ----------- -----------
   1      -0.00004     0.00004     0.00000     0.00184    -0.00154     0.00000
   2       0.00000    -0.00000    -0.00007    -0.00000    -0.00000     0.19147
   3       0.00000     0.00000    -0.00005     0.00000     0.00000     0.58883
   4      -0.00000    -0.00000    -0.00012     0.00000     0.00000    -0.23226
   5      -0.00016     0.00017    -0.00000     0.00702    -0.00589    -0.00000
   6      -0.00000    -0.00000     0.00003    -0.00000    -0.00000     1.05808
   7      -0.00000     0.00000    -0.00007     0.00000     0.00000    -0.13577
   8       0.00000    -0.00000     0.00029     0.00000     0.00000    -0.27545
   9      -0.00011     0.00012    -0.00000     0.00508    -0.00425     0.00000
  10       0.00000    -0.00000     0.71488     0.00000    -0.00000     0.00001
  11      -0.00006     0.00006     0.00000     0.00257    -0.00215     0.00000
  12       0.00000     0.00000    -0.00000     0.00000     0.00000    -0.00016
  13       0.00000     0.00000    -0.00002    -0.00000     0.00000    -0.00047
  14       0.00000     0.00000    -0.00001     0.00000     0.00000     0.00003
  15       0.00000     0.00000    -0.00005     0.00000     0.00000    -0.08624
  16      -0.00000     0.00000     0.00096     0.00000     0.00000    -0.00446
  17       0.00000     0.00000     0.00062    -0.00000    -0.00000     0.02411
  18       0.00056    -0.00410     0.00000    -0.00104    -0.00012     0.00000
  19       1.71172    -0.00278     0.00000    -0.00061    -0.00093     0.00000
  20      -0.00278     1.73372    -0.00000    -0.00033    -0.00008     0.00000
  21       0.00000    -0.00000     1.46629     0.00000     0.00000    -0.00011
  22      -0.00061    -0.00033     0.00000     1.71667     0.01520     0.00000
  23      -0.00093    -0.00008     0.00000     0.01520     1.72195     0.00000
  24       0.00000     0.00000    -0.00011     0.00000     0.00000     2.54922
  25      -0.00000     0.00000     0.00031     0.00000     0.00000     0.00758
  26       0.00000     0.00000     0.00081    -0.00000    -0.00000    -0.00501
  27       0.00000    -0.00000     0.00000    -0.00000     0.00000    -0.00219
  28       0.00000    -0.00000    -0.00000    -0.00000    -0.00000    -0.00073
  29       0.00000     0.00000     0.00001     0.00000     0.00000    -0.00114
  30      -0.25183     0.67186     0.00000     0.00003     0.00012    -0.00000
  31      -0.66876    -0.25778     0.00000     0.00031     0.00040     0.00000
  32      -0.05110     0.09730     0.00000    -0.00046    -0.00002    -0.00000
  33      -0.00000    -0.00000     0.00041    -0.00000    -0.00000    -0.15994
  34      -0.00000     0.00000    -0.00230    -0.00000    -0.00000    -0.04236
  35       0.00000    -0.00000    -0.00094    -0.00000    -0.00000    -0.02774
  36      -0.00039     0.00042     0.00000     0.01757    -0.01472    -0.00000
  37       0.00000    -0.00000    -0.00082     0.00000     0.00000    -0.12434
  38      -0.00000     0.00000     0.00088     0.00000     0.00000    -0.08407
  39       0.00000     0.00000    -0.00010    -0.00000    -0.00000    -0.42360
  40      -0.00031    -0.00015     0.00000     0.71611     0.07362    -0.00000
  41       0.00039     0.00002    -0.00000     0.05996    -0.71720     0.00000
  42       0.01386    -0.00478     0.00000     0.00005    -0.00010     0.00000
  43      -0.01015    -0.01661    -0.00000     0.00018     0.00012     0.00000
  44       0.00811    -0.01530    -0.00000    -0.00013    -0.00008    -0.00000
  45      -0.00001     0.00001    -0.00000     0.00046    -0.00038    -0.00000
  46       0.00000     0.00000     0.00006     0.00000     0.00000    -0.25511
  47      -0.00000     0.00000    -0.00060    -0.00000    -0.00000     0.03507
  48       0.00000     0.00000     0.00002    -0.00000    -0.00000    -0.52533
  49       0.00018     0.00002    -0.00000    -0.00430    -0.02110     0.00000
  50       0.00010     0.00006     0.00000    -0.01972    -0.00109     0.00000
  51      -0.00002     0.00003    -0.00000     0.00110    -0.00092    -0.00000
  52      -0.00000     0.00000     0.00016     0.00000     0.00000     0.21029
  53       0.00000     0.00000    -0.00009    -0.00000    -0.00000     0.71513
  54       0.00000    -0.00000     0.00030     0.00000     0.00000     0.22363
  55       0.00023    -0.00025    -0.00000    -0.01028     0.00861    -0.00000
  56      -0.00000     0.00000     0.00149    -0.00000    -0.00000    -0.12390
  57       0.00000     0.00000     0.00066    -0.00000    -0.00000     0.14607
  58      -0.00000     0.00000     0.00145     0.00000     0.00000     0.02355
  59       0.00003    -0.00004     0.00000    -0.00155     0.00130    -0.00000

           25          26          27          28          29          30  
       ----------- ----------- ----------- ----------- ----------- -----------
   1       0.00000    -0.00000     0.00000     0.00000    -0.00000     0.00001
   2      -0.63250    -0.08412     0.00081     0.00034    -0.00073     0.00000
   3       0.21244    -0.22120    -0.00082    -0.00029    -0.00039    -0.00000
   4       0.00947    -0.62402    -0.00031    -0.00007    -0.00096     0.00000
   5      -0.00000     0.00000     0.00000    -0.00000     0.00000     0.00003
   6      -0.09331     0.29136    -0.00026    -0.00009     0.00019     0.00000
   7      -1.09612     0.13344     0.00231     0.00079    -0.00077    -0.00000
   8       0.16347     1.06528     0.00079     0.00015     0.00244     0.00000
   9       0.00000    -0.00000     0.00000    -0.00000     0.00000     0.00003
  10      -0.00002    -0.00005    -0.00000     0.00000    -0.00002     0.00000
  11       0.00000    -0.00000    -0.00000    -0.00000    -0.00000    -0.00006
  12      -0.00074     0.00016    -0.48895     0.48753     0.18779     0.00000
  13       0.00012    -0.00060     0.32066     0.07656     0.63405     0.00000
  14      -0.00010    -0.00014    -0.41174    -0.51658     0.27102    -0.00000
  15       0.01655    -0.01339    -0.00025    -0.00008    -0.00010     0.00000
  16      -0.07533    -0.05793    -0.00436    -0.00154     0.00855    -0.00000
  17       0.05514    -0.07360     0.00830     0.00211     0.00462    -0.00000
  18      -0.00000     0.00000     0.00000     0.00000    -0.00000    -0.11127
  19      -0.00000     0.00000     0.00000     0.00000     0.00000    -0.25183
  20       0.00000     0.00000    -0.00000    -0.00000     0.00000     0.67186
  21       0.00031     0.00081     0.00000    -0.00000     0.00001     0.00000
  22       0.00000    -0.00000    -0.00000    -0.00000     0.00000     0.00003
  23       0.00000    -0.00000     0.00000    -0.00000     0.00000     0.00012
  24       0.00758    -0.00501    -0.00219    -0.00073    -0.00114    -0.00000
  25       2.58372     0.00106    -0.00613    -0.00238     0.00324    -0.00000
  26       0.00106     2.58460     0.00276     0.00070     0.00663    -0.00000
  27      -0.00613     0.00276     1.46771    -0.00214    -0.00018    -0.00000
  28      -0.00238     0.00070    -0.00214     1.46499     0.00016     0.00000
  29       0.00324     0.00663    -0.00018     0.00016     1.46634    -0.00000
  30      -0.00000    -0.00000    -0.00000     0.00000    -0.00000     1.18094
  31       0.00000     0.00000     0.00000     0.00000     0.00000    -0.00691
  32       0.00000    -0.00000     0.00000    -0.00000     0.00000    -0.00105
  33      -0.01533    -0.04744    -0.00410    -0.00125     0.00467     0.00000
  34       0.12146     0.12496     0.00534     0.00209    -0.01989    -0.00000
  35      -0.13110     0.11955    -0.01971    -0.00481    -0.00660     0.00000
  36      -0.00000     0.00000    -0.00000    -0.00000    -0.00000     0.00009
  37      -0.19770     0.39512    -0.00793    -0.00167    -0.00635     0.00000
  38      -0.39235    -0.22289    -0.00605    -0.00173     0.00809    -0.00000
  39       0.13161    -0.06935     0.00080     0.00019    -0.00038     0.00000
  40      -0.00000     0.00000    -0.00000     0.00000    -0.00000     0.00012
  41       0.00000    -0.00000    -0.00000    -0.00000     0.00000    -0.00034
  42       0.00000     0.00000    -0.00000     0.00000    -0.00000     0.07848
  43       0.00000     0.00000     0.00000     0.00000     0.00000     0.10274
  44       0.00000     0.00000     0.00000    -0.00000     0.00000     0.18970
  45      -0.00000     0.00000     0.00000     0.00000    -0.00000     0.00000
  46      -0.49234     0.21759     0.00476     0.00212     0.00023    -0.00000
  47      -0.25559    -0.53733     0.00001     0.00027    -0.00509    -0.00000
  48       0.21668    -0.13698    -0.00043    -0.00029     0.00079     0.00000
  49       0.00000    -0.00000    -0.00000     0.00000    -0.00000     0.00016
  50       0.00000    -0.00000    -0.00000     0.00000    -0.00000     0.00002
  51      -0.00000     0.00000     0.00000     0.00000    -0.00000    -0.00012
  52       0.50510    -0.55484     0.00261     0.00103     0.00118    -0.00000
  53       0.03695     0.30610     0.00056     0.00024    -0.00056    -0.00000
  54      -0.59220    -0.45381    -0.00094    -0.00054     0.00273     0.00000
  55      -0.00000     0.00000     0.00000    -0.00000     0.00000    -0.00021
  56      -0.04513     0.14668     0.01197     0.00440     0.01249    -0.00000
  57      -0.06448     0.11065     0.00424     0.00174     0.00369    -0.00000
  58       0.18226     0.07571    -0.01183    -0.00572     0.01331    -0.00000
  59      -0.00000     0.00000     0.00000     0.00000    -0.00000     0.00015

           31          32          33          34          35          36  
       ----------- ----------- ----------- ----------- ----------- -----------
[...]
  24      -0.00001     0.00000    -0.00000    -0.00000     0.00016
  25      -2.95909    -0.00000     0.00000     0.00000    -7.10638
  26      -0.00000    -0.00000     0.00000    -0.00000     0.00001
  27      -2.95909    -0.00000     0.00000     0.00000    -7.10638
  28      -1.58487     0.00000     0.00000    -0.00000    -8.89151
  29       0.00013     0.00000     0.00000    -0.00000     0.00019
  30      -0.00008     0.00000    -0.00000     0.00000    -0.00012
  31      -1.58617     0.00000     0.00000    -0.00000    -8.89346
  32      -0.00000    -0.00000     0.00000    -0.00000    -0.00001
  33      -1.58617     0.00000     0.00000    -0.00000    -8.89346
  34       1.98882     0.00000    -0.00000    -0.00000    -2.38746
  35      -0.00003    -0.00000     0.00000    -0.00000    -0.00008
  36       0.00002    -0.00000    -0.00000     0.00000     0.00005
  37       1.98909     0.00000    -0.00000    -0.00000    -2.38666
  38       0.00000     0.00000     0.00000     0.00000     0.00000
  39       1.98909     0.00000    -0.00000    -0.00000    -2.38666
  40       0.00000   -13.67308    -0.40963     0.68643     0.00000
  41      -0.00000    -0.67797    -0.30808   -13.67446    -0.00000
  42      -0.00000     0.42485   -13.68510     0.28729     0.00000
  43       0.00000   -13.66784    -0.40963     0.68640     0.00000
  44       0.00000     0.00005    -0.00002     0.00002     0.00000
  45       0.00000   -13.66781    -0.40961     0.68642     0.00000
  46      -0.00000    -0.67718    -0.30807   -13.67421    -0.00000
  47      -0.00000     0.42436   -13.68485     0.28729     0.00000
  48      -0.00000    -0.67718    -0.30807   -13.67421    -0.00000
  49      -0.00000     0.42436   -13.68485     0.28729     0.00000
  50       0.00000    -7.30670    -0.21898     0.36694     0.00000
  51      -0.00000    -0.36169    -0.16468    -7.30987    -0.00000
  52      -0.00000     0.22666    -7.31555     0.15358     0.00000
  53       0.00000    -7.30994    -0.21900     0.36707     0.00000
  54      -0.00000    -0.00003     0.00008    -0.00005    -0.00000
  55       0.00000    -7.30996    -0.21905     0.36698     0.00000
  56      -0.00000    -0.36218    -0.16471    -7.31069    -0.00000
  57      -0.00000     0.22696    -7.31638     0.15359     0.00000
  58      -0.00000    -0.36218    -0.16471    -7.31069    -0.00000
  59      -0.00000     0.22696    -7.31638     0.15359     0.00000
  int_init: cando_txs set to always be  F
                                NWChem TDDFT Module
                                -------------------


            General Information
            -------------------
           No. of orbitals :     118
            Alpha orbitals :      59
             Beta orbitals :      59
        Alpha frozen cores :       0
         Beta frozen cores :       0
     Alpha frozen virtuals :       0
      Beta frozen virtuals :       0
         Spin multiplicity :       2
    Number of AO functions :      59
        Use of symmetry is : off
      Symmetry adaption is : off
         Schwarz screening :  0.10D-07

              XC Information
              --------------
              Hartree-Fock (Exact) Exchange   1.00          
              LC-wPBE(h)Exchange Functional   1.00          
     Perdew 1991 LDA Correlation Functional   1.00 local    
    PerdewBurkeErnz. Correlation Functional   1.00 non-local
           Alpha           :  0.00
           Beta            :  1.00
           Gamma           :  0.40

             TDDFT Information
             -----------------
          Calculation type : TDDFT             
         Wavefunction type : Unrestricted
          No. of electrons :      17
           Alpha electrons :       9
            Beta electrons :       8
              No. of roots :       5
          Max subspacesize :    5000
            Max iterations :     100
               Target root :       1
           Target symmetry : none
      Symmetry restriction : off
                 Algorithm : Optimal
        Davidson threshold :  0.10D-03

            Memory Information
            ------------------
          Available GA space size is       52428793038 doubles
          Available MA space size is        4194415692 doubles
          Length of a trial vector is          450     408
          Algorithm : Incore multiple tensor contraction
          Estimated peak GA usage is          17753388 doubles
          Estimated peak MA usage is             18000 doubles

    5 smallest eigenvalue differences (eV) 
--------------------------------------------------------
  No. Spin  Occ  Vir  Irrep   E(Occ)    E(Vir)   E(Diff)
--------------------------------------------------------
    1    2    8    9 a        -0.463    -0.128     9.094
    2    2    7    9 a        -0.463    -0.128     9.094
    3    2    8   10 a        -0.463     0.088    14.976
    4    2    7   10 a        -0.463     0.088    14.976
    5    1    9   10 a        -0.478     0.085    15.311
--------------------------------------------------------

  Entering Davidson iterations
  Unrestricted

  Iter   NTrls   NConv    DeltaV     DeltaE      Time   
  ----  ------  ------  ---------  ---------  --------- 
    1      5       0     0.13E+00   0.10+100        4.9
    2     15       0     0.61E-01   0.12E-01        8.6
    3     25       0     0.28E-01   0.17E-02        8.7
    4     33       0     0.13E-01   0.86E-03        7.5
    5     41       0     0.60E-02   0.11E-03        7.6
    6     49       4     0.97E-03   0.20E-04        7.6
    7     51       4     0.35E-03   0.62E-06        3.5
    8     53       4     0.14E-03   0.84E-07        3.0
    9     55       5     0.32E-04   0.12E-08        2.8
  ----  ------  ------  ---------  ---------  --------- 
  Convergence criterion met

  Ground state a        -460.011795841298 a.u.
  <S2> =   0.7542

  ----------------------------------------------------------------------------
  Root   1         a              0.000148111 a.u.                0.0040 eV 
  <S2> =   0.7555
  ----------------------------------------------------------------------------
     Transition Moments    X  0.00000   Y -0.00000   Z -0.00000
     Transition Moments   XX -0.62060  XY  5.93473  XZ -0.49032
     Transition Moments   YY  0.58956  YZ -0.20949  ZZ  0.03104
     Dipole Oscillator Strength                    0.0000000000
     Electric Quadrupole                           0.0000000000
     Magnetic Dipole                               0.0000000000
     Total Oscillator Strength                     0.0000000000

     Occ.    6 alpha a   ---  Virt.   15 alpha a    0.16578 X
     Occ.    6 alpha a   ---  Virt.   15 alpha a    0.16573 Y
     Occ.    6 alpha a   ---  Virt.   24 alpha a    0.17841 X
     Occ.    6 alpha a   ---  Virt.   24 alpha a    0.17837 Y
     Occ.    7 alpha a   ---  Virt.   13 alpha a   -0.07241 X
     Occ.    7 alpha a   ---  Virt.   13 alpha a   -0.07237 Y
     Occ.    7 alpha a   ---  Virt.   22 alpha a   -0.07088 X
     Occ.    7 alpha a   ---  Virt.   22 alpha a   -0.07085 Y
     Occ.    7 alpha a   ---  Virt.   29 alpha a    0.06778 X
     Occ.    7 alpha a   ---  Virt.   29 alpha a    0.06777 Y
     Occ.    7 alpha a   ---  Virt.   30 alpha a   -0.06687 X
     Occ.    7 alpha a   ---  Virt.   30 alpha a   -0.06686 Y
     Occ.    7 alpha a   ---  Virt.   45 alpha a    0.05563 X
     Occ.    7 alpha a   ---  Virt.   45 alpha a    0.05563 Y
     Occ.    8 alpha a   ---  Virt.   11 alpha a   -0.07362 X
     Occ.    8 alpha a   ---  Virt.   11 alpha a   -0.07357 Y
     Occ.    8 alpha a   ---  Virt.   20 alpha a   -0.07485 X
     Occ.    8 alpha a   ---  Virt.   20 alpha a   -0.07481 Y
     Occ.    8 alpha a   ---  Virt.   28 alpha a   -0.07120 X
     Occ.    8 alpha a   ---  Virt.   28 alpha a   -0.07119 Y
     Occ.    8 alpha a   ---  Virt.   31 alpha a    0.08464 X
     Occ.    8 alpha a   ---  Virt.   31 alpha a    0.08462 Y
     Occ.    8 alpha a   ---  Virt.   47 alpha a    0.05538 X
     Occ.    8 alpha a   ---  Virt.   47 alpha a    0.05537 Y
     Occ.    9 alpha a   ---  Virt.   32 alpha a    0.08464 X
     Occ.    9 alpha a   ---  Virt.   32 alpha a    0.08462 Y
     Occ.    9 alpha a   ---  Virt.   48 alpha a    0.05538 X
     Occ.    9 alpha a   ---  Virt.   48 alpha a    0.05537 Y
     Occ.    6 beta  a   ---  Virt.   17 beta  a   -0.12219 X
     Occ.    6 beta  a   ---  Virt.   17 beta  a   -0.12207 Y
     Occ.    6 beta  a   ---  Virt.   26 beta  a   -0.08471 X
     Occ.    6 beta  a   ---  Virt.   26 beta  a   -0.08465 Y
     Occ.    7 beta  a   ---  Virt.    9 beta  a    0.47048 X
     Occ.    7 beta  a   ---  Virt.    9 beta  a    0.45510 Y
     Occ.    8 beta  a   ---  Virt.    9 beta  a   -3.89445 X
     Occ.    8 beta  a   ---  Virt.    9 beta  a   -3.76709 Y
     Occ.    8 beta  a   ---  Virt.   13 beta  a    0.34834 X
     Occ.    8 beta  a   ---  Virt.   13 beta  a    0.33751 Y
     Occ.    8 beta  a   ---  Virt.   22 beta  a    0.19583 X
     Occ.    8 beta  a   ---  Virt.   22 beta  a    0.19003 Y
  ----------------------------------------------------------------------------
  Root   2         a              0.000148402 a.u.                0.0040 eV 
  <S2> =   0.7555
  ----------------------------------------------------------------------------
     Transition Moments    X -0.00000   Y  0.00000   Z -0.00000
     Transition Moments   XX  0.31906  XY  0.51613  XZ  5.94451
     Transition Moments   YY  0.05036  YZ  0.27897  ZZ -0.36941
     Dipole Oscillator Strength                    0.0000000000
     Electric Quadrupole                           0.0000000000
     Magnetic Dipole                               0.0000000000
     Total Oscillator Strength                     0.0000000000

     Occ.    6 alpha a   ---  Virt.   16 alpha a    0.16561 X
     Occ.    6 alpha a   ---  Virt.   16 alpha a    0.16557 Y
     Occ.    6 alpha a   ---  Virt.   25 alpha a    0.17824 X
     Occ.    6 alpha a   ---  Virt.   25 alpha a    0.17820 Y
     Occ.    7 alpha a   ---  Virt.   12 alpha a   -0.07234 X
     Occ.    7 alpha a   ---  Virt.   12 alpha a   -0.07230 Y
     Occ.    7 alpha a   ---  Virt.   21 alpha a   -0.07081 X
     Occ.    7 alpha a   ---  Virt.   21 alpha a   -0.07078 Y
     Occ.    7 alpha a   ---  Virt.   29 alpha a    0.06680 X
     Occ.    7 alpha a   ---  Virt.   29 alpha a    0.06679 Y
     Occ.    7 alpha a   ---  Virt.   30 alpha a    0.06771 X
     Occ.    7 alpha a   ---  Virt.   30 alpha a    0.06770 Y
     Occ.    7 alpha a   ---  Virt.   46 alpha a    0.05558 X
     Occ.    7 alpha a   ---  Virt.   46 alpha a    0.05557 Y
     Occ.    8 alpha a   ---  Virt.   32 alpha a    0.08455 X
     Occ.    8 alpha a   ---  Virt.   32 alpha a    0.08453 Y
     Occ.    8 alpha a   ---  Virt.   48 alpha a    0.05532 X
     Occ.    8 alpha a   ---  Virt.   48 alpha a    0.05532 Y
     Occ.    9 alpha a   ---  Virt.   11 alpha a   -0.07355 X
     Occ.    9 alpha a   ---  Virt.   11 alpha a   -0.07349 Y
     Occ.    9 alpha a   ---  Virt.   20 alpha a   -0.07478 X
     Occ.    9 alpha a   ---  Virt.   20 alpha a   -0.07474 Y
     Occ.    9 alpha a   ---  Virt.   28 alpha a   -0.07113 X
     Occ.    9 alpha a   ---  Virt.   28 alpha a   -0.07112 Y
     Occ.    9 alpha a   ---  Virt.   31 alpha a   -0.08455 X
     Occ.    9 alpha a   ---  Virt.   31 alpha a   -0.08453 Y
     Occ.    9 alpha a   ---  Virt.   47 alpha a   -0.05532 X
     Occ.    9 alpha a   ---  Virt.   47 alpha a   -0.05532 Y
     Occ.    6 beta  a   ---  Virt.   16 beta  a   -0.12207 X
     Occ.    6 beta  a   ---  Virt.   16 beta  a   -0.12195 Y
     Occ.    6 beta  a   ---  Virt.   25 beta  a   -0.08462 X
     Occ.    6 beta  a   ---  Virt.   25 beta  a   -0.08457 Y
     Occ.    7 beta  a   ---  Virt.    9 beta  a   -3.89075 X
     Occ.    7 beta  a   ---  Virt.    9 beta  a   -3.76327 Y
     Occ.    7 beta  a   ---  Virt.   13 beta  a    0.34801 X
     Occ.    7 beta  a   ---  Virt.   13 beta  a    0.33717 Y
     Occ.    7 beta  a   ---  Virt.   22 beta  a    0.19564 X
     Occ.    7 beta  a   ---  Virt.   22 beta  a    0.18984 Y
     Occ.    8 beta  a   ---  Virt.    9 beta  a   -0.47003 X
     Occ.    8 beta  a   ---  Virt.    9 beta  a   -0.45463 Y
  ----------------------------------------------------------------------------
  Root   3         a              0.343502597 a.u.                9.3472 eV 
  <S2> =   2.4724
  ----------------------------------------------------------------------------
     Transition Moments    X  0.01481   Y -0.29554   Z  0.00548
     Transition Moments   XX -0.00000  XY -0.00000  XZ -0.00000
     Transition Moments   YY  0.00000  YZ  0.00000  ZZ -0.00000
     Dipole Oscillator Strength                    0.0200593883
     Electric Quadrupole                           0.0000000000
     Magnetic Dipole                               0.0000000000
     Total Oscillator Strength                     0.0200593883

     Occ.    8 alpha a   ---  Virt.   10 alpha a   -0.38186 X
     Occ.    8 alpha a   ---  Virt.   19 alpha a    0.07998 X
     Occ.    8 beta  a   ---  Virt.   10 beta  a    0.90534 X
     Occ.    8 beta  a   ---  Virt.   19 beta  a   -0.14812 X
  ----------------------------------------------------------------------------
  Root   4         a              0.343502598 a.u.                9.3472 eV 
  <S2> =   2.4724
  ----------------------------------------------------------------------------
     Transition Moments    X  0.00889   Y  0.00593   Z  0.29577
     Transition Moments   XX -0.00000  XY  0.00000  XZ -0.00000
     Transition Moments   YY -0.00000  YZ  0.00000  ZZ -0.00000
     Dipole Oscillator Strength                    0.0200589531
     Electric Quadrupole                           0.0000000000
     Magnetic Dipole                               0.0000000000
     Total Oscillator Strength                     0.0200589531

     Occ.    9 alpha a   ---  Virt.   10 alpha a    0.38186 X
     Occ.    9 alpha a   ---  Virt.   19 alpha a   -0.07998 X
     Occ.    7 beta  a   ---  Virt.   10 beta  a   -0.90534 X
     Occ.    7 beta  a   ---  Virt.   19 beta  a    0.14812 X
  ----------------------------------------------------------------------------
  Root   5         a              0.359245693 a.u.                9.7756 eV 
  <S2> =   1.0349
  ----------------------------------------------------------------------------
     Transition Moments    X  0.02202   Y -0.00449   Z  0.70208
     Transition Moments   XX -0.00000  XY  0.00000  XZ -0.00000
     Transition Moments   YY -0.00000  YZ  0.00000  ZZ -0.00000
     Dipole Oscillator Strength                    0.1181723328
     Electric Quadrupole                           0.0000000000
     Magnetic Dipole                               0.0000000000
     Total Oscillator Strength                     0.1181723328

     Occ.    9 alpha a   ---  Virt.   10 alpha a   -0.90955 X
     Occ.    9 alpha a   ---  Virt.   19 alpha a    0.13446 X
     Occ.    7 beta  a   ---  Virt.   10 beta  a   -0.38971 X

              Target root =      1
          Target symmetry = none
      Ground state energy =   -460.011795841298
        Excitation energy =      0.000148110794
     Excited state energy =   -460.011647730504

  stored tddft:energy   -460.01164773050419     

 Task  times  cpu:       50.5s     wall:       58.2s


                                NWChem Input Module
                                -------------------


 Summary of allocated global arrays
-----------------------------------
  No active global arrays


MA_summarize_allocated_blocks: starting scan ...
heap block 'gridpts', handle 124, address 0x12733e28:
	type of elements:		double precision
	number of elements:		1048462957
	address of client space:	0x12733e80
	index for client space:		10535719
	total number of bytes:		8387703752
MA_summarize_allocated_blocks: scan completed: 1 heap block, 0 stack blocks
MA usage statistics:

	allocation statistics:
					      heap	     stack
					      ----	     -----
	current number of blocks	         1	         0
	maximum number of blocks	        18	        54
	current total bytes		8387703752	         0
	maximum total bytes		8388693552	  22513480
	maximum total K-bytes		   8388694	     22514
	maximum total M-bytes		      8389	        23


                                     CITATION
                                     --------
                Please cite the following reference when publishing
                           results obtained with NWChem:

          E. Apra, E. J. Bylaska, W. A. de Jong, N. Govind, K. Kowalski,
       T. P. Straatsma, M. Valiev, H. J. J. van Dam, Y. Alexeev, J. Anchell,
       V. Anisimov, F. W. Aquino, R. Atta-Fynn, J. Autschbach, N. P. Bauman,
     J. C. Becca, D. E. Bernholdt, K. Bhaskaran-Nair, S. Bogatko, P. Borowski,
         J. Boschen, J. Brabec, A. Bruner, E. Cauet, Y. Chen, G. N. Chuev,
      C. J. Cramer, J. Daily, M. J. O. Deegan, T. H. Dunning Jr., M. Dupuis,
   K. G. Dyall, G. I. Fann, S. A. Fischer, A. Fonari, H. Fruchtl, L. Gagliardi,
      J. Garza, N. Gawande, S. Ghosh, K. Glaesemann, A. W. Gotz, J. Hammond,
       V. Helms, E. D. Hermes, K. Hirao, S. Hirata, M. Jacquelin, L. Jensen,
   B. G. Johnson, H. Jonsson, R. A. Kendall, M. Klemm, R. Kobayashi, V. Konkov,
      S. Krishnamoorthy, M. Krishnan, Z. Lin, R. D. Lins, R. J. Littlefield,
      A. J. Logsdail, K. Lopata, W. Ma, A. V. Marenich, J. Martin del Campo,
   D. Mejia-Rodriguez, J. E. Moore, J. M. Mullin, T. Nakajima, D. R. Nascimento,
    J. A. Nichols, P. J. Nichols, J. Nieplocha, A. Otero-de-la-Roza, B. Palmer,
    A. Panyala, T. Pirojsirikul, B. Peng, R. Peverati, J. Pittner, L. Pollack,
   R. M. Richard, P. Sadayappan, G. C. Schatz, W. A. Shelton, D. W. Silverstein,
   D. M. A. Smith, T. A. Soares, D. Song, M. Swart, H. L. Taylor, G. S. Thomas,
            V. Tipparaju, D. G. Truhlar, K. Tsemekhman, T. Van Voorhis,
      A. Vazquez-Mayagoitia, P. Verma, O. Villa, A. Vishnu, K. D. Vogiatzis,
        D. Wang, J. H. Weare, M. J. Williamson, T. L. Windus, K. Wolinski,
        A. T. Wong, Q. Wu, C. Yang, Q. Yu, M. Zacharias, Z. Zhang, Y. Zhao,
                                and R. J. Harrison
                        "NWChem: Past, present, and future
                         J. Chem. Phys. 152, 184102 (2020)
                               doi:10.1063/5.0004997

                                      AUTHORS
                                      -------
  E. Apra, E. J. Bylaska, N. Govind, K. Kowalski, M. Valiev, D. Mejia-Rodriguez,
       A. Kunitsa, N. P. Bauman, A. Panyala, W. A. de Jong, T. P. Straatsma,
   H. J. J. van Dam, D. Wang, T. L. Windus, J. Hammond, J. Autschbach, A. Woods,
    K. Bhaskaran-Nair, J. Brabec, K. Lopata, S. A. Fischer, S. Krishnamoorthy,
     M. Jacquelin, W. Ma, M. Klemm, O. Villa, Y. Chen, V. Anisimov, F. Aquino,
     S. Hirata, M. T. Hackler, E. Hermes, L. Jensen, J. E. Moore, J. C. Becca,
      V. Konjkov, T. Risthaus, M. Malagoli, A. Marenich, A. Otero-de-la-Roza,
        J. Mullin, P. Nichols, R. Peverati, J. Pittner, Y. Zhao, P.-D. Fan,
        A. Fonari, M. J. Williamson, R. J. Harrison, J. R. Rehr, M. Dupuis,
     D. Silverstein, D. M. A. Smith, J. Nieplocha, V. Tipparaju, M. Krishnan,
     B. E. Van Kuiken, A. Vazquez-Mayagoitia, M. Swart, Q. Wu, T. Van Voorhis,
     A. A. Auer, M. Nooijen, L. D. Crosby, E. Brown, G. Cisneros, G. I. Fann,
   H. Fruchtl, J. Garza, K. Hirao, R. A. Kendall, J. A. Nichols, K. Tsemekhman,
    K. Wolinski, J. Anchell, D. E. Bernholdt, P. Borowski, T. Clark, D. Clerc,
   H. Dachsel, M. J. O. Deegan, K. Dyall, D. Elwood, E. Glendening, M. Gutowski,
   A. C. Hess, J. Jaffe, B. G. Johnson, J. Ju, R. Kobayashi, R. Kutteh, Z. Lin,
   R. Littlefield, X. Long, B. Meng, T. Nakajima, S. Niu, L. Pollack, M. Rosing,
   K. Glaesemann, G. Sandrone, M. Stave, H. Taylor, G. Thomas, J. H. van Lenthe,
                               A. T. Wong, Z. Zhang.

 Total times  cpu:       50.6s     wall:       58.6s
