 argument  1 = /home/aditisingh4812/nw_chem/nwchem-run/nwchem-run/tddft/open/open_atom/geom-MOL-0.4/f.nw
                                         
                                         


             Northwest Computational Chemistry Package (NWChem) 7.2.3
             --------------------------------------------------------


                    Environmental Molecular Sciences Laboratory
                       Pacific Northwest National Laboratory
                                Richland, WA 99352

                              Copyright (c) 1994-2022
                       Pacific Northwest National Laboratory
                            Battelle Memorial Institute

             NWChem is an open-source computational chemistry package
                        distributed under the terms of the
                      Educational Community License (ECL) 2.0
             A copy of the license is included with this distribution
                              in the LICENSE.TXT file

                                  ACKNOWLEDGMENT
                                  --------------

            This software and its documentation were developed at the
            EMSL at Pacific Northwest National Laboratory, a multiprogram
            national laboratory, operated for the U.S. Department of Energy
            by Battelle under Contract Number DE-AC05-76RL01830. Support
            for this work was provided by the Department of Energy Office
            of Biological and Environmental Research, Office of Basic
            Energy Sciences, and the Office of Advanced Scientific Computing.


           Job information
           ---------------

    hostname        = p17
    program         = /home/aditisingh4812/nw_chem/nwchem-7.2.3-release.revision-d690e065-srconly.2024-08-27/nwchem-7.2.3/bin/LINUX64/nwchem
    date            = Thu Apr 24 11:13:35 2025

    compiled        = Mon_Apr_07_18:51:54_2025
    source          = /home/aditisingh4812/nw_chem/nwchem-7.2.3-release.revision-d690e065-srconly.2024-08-27/nwchem-7.2.3
    nwchem branch   = 7.2.3
    nwchem revision = d690e065
    ga revision     = 5.8.0
    use scalapack   = F
    input           = /home/aditisingh4812/nw_chem/nwchem-run/nwchem-run/tddft/open/open_atom/geom-MOL-0.4/f.nw
    prefix          = f.
    data base       = ./f.db
    status          = startup
    nproc           =        8
    time left       =     -1s



           Memory information
           ------------------

    heap     = 2621440000 doubles =  20000.0 Mbytes
    stack    = 2621439997 doubles =  20000.0 Mbytes
    global   = 6553600000 doubles =  50000.0 Mbytes (distinct from heap & stack)
    total    = ********** doubles =  90000.0 Mbytes
    verify   = yes
    hardfail = no 


           Directory information
           ---------------------

  0 permanent = .
  0 scratch   = .




                                NWChem Input Module
                                -------------------



 Scaling coordinates for geometry "geometry" by  1.889725989
 (inverse scale =  0.529177249)



                             Geometry "geometry" -> ""
                             -------------------------

 Output coordinates in angstroms (scale by  1.889725989 to convert to a.u.)

  No.       Tag          Charge          X              Y              Z
 ---- ---------------- ---------- -------------- -------------- --------------
    1 F                    9.0000     0.00000000     0.00000000     0.00000000

      Atomic Mass 
      ----------- 

      F                 18.998400


 Effective nuclear repulsion energy (a.u.)       0.0000000000

            Nuclear Dipole moment (a.u.) 
            ----------------------------
        X                 Y               Z
 ---------------- ---------------- ----------------
     0.0000000000     0.0000000000     0.0000000000


            XYZ format geometry
            -------------------
     1
 geometry
 F                     0.00000000     0.00000000     0.00000000



 Summary of "ao basis" -> "" (cartesian)
 ------------------------------------------------------------------------------
       Tag                 Description            Shells   Functions and Types
 ---------------- ------------------------------  ------  ---------------------
 *                        aug-cc-pVTZ                 on all atoms 


  pbe96 is a nonlocal functional; adding pw91lda local functional. 

                                 NWChem DFT Module
                                 -----------------


                      Basis "ao basis" -> "ao basis" (cartesian)
                      -----
  F (Fluorine)
  ------------
            Exponent  Coefficients 
       -------------- ---------------------------------------------------------
  1 S  1.95000000E+04  0.000507
  1 S  2.92300000E+03  0.003923
  1 S  6.64500000E+02  0.020200
  1 S  1.87500000E+02  0.079010
  1 S  6.06200000E+01  0.230439
  1 S  2.14200000E+01  0.432872
  1 S  7.95000000E+00  0.349964
  1 S  8.81500000E-01 -0.007892

  2 S  1.95000000E+04 -0.000117
  2 S  2.92300000E+03 -0.000912
  2 S  6.64500000E+02 -0.004717
  2 S  1.87500000E+02 -0.019086
  2 S  6.06200000E+01 -0.059655
  2 S  2.14200000E+01 -0.140010
  2 S  7.95000000E+00 -0.176782
  2 S  8.81500000E-01  0.605043

  3 S  2.25700000E+00  1.000000

  4 S  3.04100000E-01  1.000000

  5 S  9.15800000E-02  1.000000

  6 P  4.38800000E+01  0.016665
  6 P  9.92600000E+00  0.104472
  6 P  2.93000000E+00  0.317260

  7 P  9.13200000E-01  1.000000

  8 P  2.67200000E-01  1.000000

  9 P  7.36100000E-02  1.000000

 10 D  3.10700000E+00  1.000000

 11 D  8.55000000E-01  1.000000

 12 D  2.92000000E-01  1.000000

 13 F  1.91700000E+00  1.000000

 14 F  7.24000000E-01  1.000000



 Summary of "ao basis" -> "ao basis" (cartesian)
 ------------------------------------------------------------------------------
       Tag                 Description            Shells   Functions and Types
 ---------------- ------------------------------  ------  ---------------------
 F                        aug-cc-pVTZ               14       55   5s4p3d2f




 Summary of "ao basis" -> "ao basis" (cartesian)
 ------------------------------------------------------------------------------
       Tag                 Description            Shells   Functions and Types
 ---------------- ------------------------------  ------  ---------------------
 F                        aug-cc-pVTZ               14       55   5s4p3d2f




                         Geometry "geometry" -> "geometry"
                         ---------------------------------

 Output coordinates in angstroms (scale by  1.889725989 to convert to a.u.)

  No.       Tag          Charge          X              Y              Z
 ---- ---------------- ---------- -------------- -------------- --------------
    1 F                    9.0000     0.00000000     0.00000000     0.00000000

      Atomic Mass 
      ----------- 

      F                 18.998400


 Effective nuclear repulsion energy (a.u.)       0.0000000000

            Nuclear Dipole moment (a.u.) 
            ----------------------------
        X                 Y               Z
 ---------------- ---------------- ----------------
     0.0000000000     0.0000000000     0.0000000000


                      Basis "ao basis" -> "ao basis" (cartesian)
                      -----
  F (Fluorine)
  ------------
            Exponent  Coefficients 
       -------------- ---------------------------------------------------------
  1 S  1.95000000E+04  0.610821
  1 S  2.92300000E+03  1.138598
  1 S  6.64500000E+02  1.930203
  1 S  1.87500000E+02  2.922896
  1 S  6.06200000E+01  3.655092
  1 S  2.14200000E+01  3.146693
  1 S  7.95000000E+00  1.209704
  1 S  8.81500000E-01 -0.005242

  2 S  1.95000000E+04 -0.234735
  2 S  2.92300000E+03 -0.440790
  2 S  6.64500000E+02 -0.750590
  2 S  1.87500000E+02 -1.175794
  2 S  6.06200000E+01 -1.575703
  2 S  2.14200000E+01 -1.694881
  2 S  7.95000000E+00 -1.017604
  2 S  8.81500000E-01  0.669219

  3 S  2.25700000E+00  1.312377

  4 S  3.04100000E-01  0.291859

  5 S  9.15800000E-02  0.118648

  6 P  4.38800000E+01  6.745828
  6 P  9.92600000E+00  6.597273
  6 P  2.93000000E+00  4.359097

  7 P  9.13200000E-01  1.272470

  8 P  2.67200000E-01  0.273833

  9 P  7.36100000E-02  0.054653

 10 D  3.10700000E+00 11.967589

 11 D  8.55000000E-01  1.251267

 12 D  2.92000000E-01  0.190910

 13 F  1.91700000E+00  6.365818

 14 F  7.24000000E-01  0.711814



    Basis function labels
    ---------------------
       No.  Atm El Type
       ---  --- -- ----
        1    1 F  s          
        2    1 F  s          
        3    1 F  s          
        4    1 F  s          
        5    1 F  s          
        6    1 F  px         
        7    1 F  py         
        8    1 F  pz         
        9    1 F  px         
       10    1 F  py         
       11    1 F  pz         
       12    1 F  px         
       13    1 F  py         
       14    1 F  pz         
       15    1 F  px         
       16    1 F  py         
       17    1 F  pz         
       18    1 F  dxx        
       19    1 F  dxy        
       20    1 F  dxz        
       21    1 F  dyy        
       22    1 F  dyz        
       23    1 F  dzz        
       24    1 F  dxx        
       25    1 F  dxy        
       26    1 F  dxz        
       27    1 F  dyy        
       28    1 F  dyz        
       29    1 F  dzz        
       30    1 F  dxx        
       31    1 F  dxy        
       32    1 F  dxz        
       33    1 F  dyy        
       34    1 F  dyz        
       35    1 F  dzz        
       36    1 F  fxxx       
       37    1 F  fxxy       
       38    1 F  fxxz       
       39    1 F  fxyy       
       40    1 F  fxyz       
       41    1 F  fxzz       
       42    1 F  fyyy       
       43    1 F  fyyz       
       44    1 F  fyzz       
       45    1 F  fzzz       
       46    1 F  fxxx       
       47    1 F  fxxy       
       48    1 F  fxxz       
       49    1 F  fxyy       
       50    1 F  fxyz       
       51    1 F  fxzz       
       52    1 F  fyyy       
       53    1 F  fyyz       
       54    1 F  fyzz       
       55    1 F  fzzz       
  int_init: cando_txs set to always be  F

 Schwarz integral screening summary 
 ---------------------------------- 

        No. of atom pairs =       1
       No. of shell pairs =     105

 Atomic screening 

   value      no.     value      no.     value      no.     value      no.   
  -------- ------    -------- ------    -------- ------    -------- ------   
  0.00D+00      0    1.00D-13      0    1.00D-12      0    1.00D-11      0
  1.00D-10      0    1.00D-09      0    1.00D-08      0    1.00D-07      0
  1.00D-06      0    1.00D-05      0    1.00D-04      0    1.00D-03      0
  1.00D-02      0    1.00D-01      0    1.00D+00      1    1.00D+01      0


 Shell screening 

   value      no.     value      no.     value      no.     value      no.   
  -------- ------    -------- ------    -------- ------    -------- ------   
  0.00D+00      0    1.00D-13      0    1.00D-12      0    1.00D-11      0
  1.00D-10      0    1.00D-09      0    1.00D-08      0    1.00D-07      0
  1.00D-06      0    1.00D-05      0    1.00D-04      0    1.00D-03      0
  1.00D-02      5    1.00D-01     27    1.00D+00     73    1.00D+01      0


  Caching 1-el integrals 
  atom                     1  - neighbor  & S                     1   10.000000000000000       exp AB    7.3610000000000050E-002   7.3610000000000050E-002
 zmins =     0.073610000    0.073610000 lprod =   2 range =        13.02 acc   0.10D-07
 sh     0.000000000
  Center:                     1  Radial Pts. & Wghts. 
    1        0.000003568           1.3628766E-16
    2        0.000028545           3.4890115E-14
    3        0.000096342           8.9422846E-13
    4        0.000228370           8.9328404E-12
    5        0.000446048           5.3250183E-11
    6        0.000770804           2.2900650E-10
    7        0.001224084           7.8619307E-10
    8        0.001827354           2.2887972E-09
    9        0.002602112           5.8750361E-09
   10        0.003569897           1.3655233E-08
   11        0.004752297           2.9290037E-08
   12        0.006170964           5.8798136E-08
   13        0.007847626           1.1164942E-07
   14        0.009804104           2.0220697E-07
   15        0.012062321           3.5158903E-07
   16        0.014644329           5.9003118E-07
   17        0.017572320           9.5983816E-07
   18        0.020868652           1.5190258E-06
   19        0.024555866           2.3457658E-06
   20        0.028656712           3.5437585E-06
   21        0.033194177           5.2486767E-06
   22        0.038191504           7.6358373E-06
   23        0.043672229           1.0929282E-05
   24        0.049660206           1.5412466E-05
   25        0.056179643           2.1440789E-05
   26        0.063255136           2.9456215E-05
   27        0.070911703           4.0004285E-05
   28        0.079174829           5.3753859E-05
   29        0.088070505           7.1519944E-05
   30        0.097625271           9.4290069E-05
   31        0.107866269           1.2325469E-04
   32        0.118821291           1.5984218E-04
   33        0.130518834           2.0575910E-04
   34        0.142988160           2.6303639E-04
   35        0.156259357           3.3408254E-04
   36        0.170363408           4.2174451E-04
   37        0.185332262           5.2937769E-04
   38        0.201198913           6.6092621E-04
   39        0.217997481           8.2101515E-04
   40        0.235763304           1.0150564E-03
   41        0.254533036           1.2493702E-03
   42        0.274344748           1.5313252E-03
   43        0.295238044           1.8694993E-03
   44        0.317254184           2.2738650E-03
   45        0.340436215           2.7560033E-03
   46        0.364829119           3.3293503E-03
   47        0.390479966           4.0094823E-03
   48        0.417438092           4.8144466E-03
   49        0.445755282           5.7651436E-03
   50        0.475485977           6.8857717E-03
   51        0.506687502           8.2043445E-03
   52        0.539420309           9.7532933E-03
   53        0.573748255           1.1570172E-02
   54        0.609738902           1.3698480E-02
   55        0.647463847           1.6188629E-02
   56        0.686999098           1.9099082E-02
   57        0.728425477           2.2497691E-02
   58        0.771829083           2.6463281E-02
   59        0.817301799           3.1087531E-02
   60        0.864941867           3.6477205E-02
   61        0.914854527           4.2756816E-02
   62        0.967152740           5.0071814E-02
   63        1.021958004           5.8592413E-02
   64        1.079401279           6.8518208E-02
   65        1.139624038           8.0083763E-02
   66        1.202779463           9.3565393E-02
   67        1.269033815           1.0928946E-01
   68        1.338568016           1.2764251E-01
   69        1.411579457           1.4908385E-01
   70        1.488284111           1.7416103E-01
   71        1.568918980           2.0352917E-01
   72        1.653744961           2.3797528E-01
   73        1.743050214           2.7844877E-01
   74        1.837154140           3.2610038E-01
   75        1.936412117           3.8233190E-01
   76        2.041221153           4.4886036E-01
   77        2.152026705           5.2780151E-01
   78        2.269330939           6.2177946E-01
   79        2.393702835           7.3407209E-01
   80        2.525790640           8.6880600E-01
   81        2.666337361           1.0312210E+00
   82        2.816200236           1.2280334E+00
   83        2.976375471           1.4679430E+00
   84        3.148030056           1.7623500E+00
   85        3.332543241           2.1263884E+00
   86        3.531561409           2.5804439E+00
   87        3.747071907           3.1524318E+00
   88        3.981504300           3.8813010E+00
   89        4.237872214           4.8225766E+00
   90        4.519977060           6.0574117E+00
   91        4.832709127           7.7079349E+00
   92        5.182507851           9.9644355E+00
   93        5.578094323           1.3136116E+01
   94        6.031695498           1.7752098E+01
   95        6.561218499           2.4779133E+01
   96        7.194425282           3.6141644E+01
   97        7.977825079           5.6147699E+01
   98        8.998606668           9.6252342E+01
   99       10.452512041           1.9682316E+02
  100       12.964138194           6.1173106E+02
     irreducible set of Lebedev Angular points ;
  0.009523809523810  1.000000000000000  0.000000000000000  0.000000000000000
  0.032142857142857  0.577350269189626  0.577350269189626  0.577350269189626
  0.028571428571429  0.459700843380983  0.000000000000000  0.888073833977115
   total no. of   reducible points:  38; test:  1.00000000
  0.012698412698413  1.000000000000000  0.000000000000000  0.000000000000000
  0.022574955908289  0.707106781186547  0.707106781186547  0.000000000000000
  0.021093750000000  0.577350269189626  0.577350269189626  0.577350269189626
  0.020173335537919  0.301511344577764  0.301511344577764  0.904534033733291
   total no. of   reducible points:  50; test:  1.00000000
  0.000513067179734  1.000000000000000  0.000000000000000  0.000000000000000
  0.016604069565742  0.707106781186547  0.707106781186547  0.000000000000000
 -0.029586038961039  0.577350269189626  0.577350269189626  0.577350269189626
  0.026576207082159  0.480384461415261  0.480384461415261  0.733799385705343
  0.016522170993716  0.320772648980776  0.000000000000000  0.947156221362588
   total no. of   reducible points:  74; test:  1.00000000
  0.011544011544012  1.000000000000000  0.000000000000000  0.000000000000000
  0.011943909085856  0.577350269189626  0.577350269189626  0.577350269189626
  0.011110555710603  0.369602846454150  0.369602846454150  0.852518311701268
  0.011876501294537  0.694354006602666  0.694354006602666  0.189063552885395
  0.011812303746904  0.374243039090341  0.000000000000000  0.927330657151172
   total no. of   reducible points:  86; test:  1.00000000
  0.003828270494937  1.000000000000000  0.000000000000000  0.000000000000000
  0.009793737512488  0.577350269189626  0.577350269189626  0.577350269189626
  0.008211737283191  0.185115635344736  0.185115635344736  0.965124035086594
  0.009942814891178  0.690421048382292  0.690421048382292  0.215957291845848
  0.009595471336071  0.395689473055942  0.395689473055942  0.828769981252592
  0.009694996361663  0.478369028812150  0.000000000000000  0.878158910604066
   total no. of   reducible points: 110; test:  1.00000000
  0.000599631368862  1.000000000000000  0.000000000000000  0.000000000000000
  0.007372999718621  0.707106781186547  0.707106781186547  0.000000000000000
  0.007210515360144  0.577350269189626  0.577350269189626  0.577350269189626
  0.007116355493118  0.676441040011426  0.676441040011426  0.291298882209527
  0.006753829486314  0.417496122796545  0.417496122796545  0.807089818359583
  0.007574394159054  0.157467667203908  0.157467667203908  0.974888643677173
  0.006991087353303  0.140355381171318  0.449332832326956  0.882270011260323
   total no. of   reducible points: 146; test:  1.00000000
  0.005544842902037  1.000000000000000  0.000000000000000  0.000000000000000
  0.006071332770671  0.707106781186547  0.707106781186547  0.000000000000000
  0.006383674773515  0.577350269189626  0.577350269189626  0.577350269189626
  0.005183387587748  0.255125262111413  0.255125262111413  0.932642590312691
  0.006317929009814  0.674360146036277  0.674360146036277  0.300793595137701
  0.006201670006589  0.431891069671941  0.431891069671941  0.791795559393492
  0.005477143385137  0.261393136033599  0.000000000000000  0.965232421976448
  0.005968383987681  0.499045316179604  0.144663074432512  0.854415804684659
   total no. of   reducible points: 170; test:  1.00000000
  0.001782340447245  1.000000000000000  0.000000000000000  0.000000000000000
  0.005716905949977  0.707106781186547  0.707106781186547  0.000000000000000
  0.005573383178849  0.577350269189626  0.577350269189626  0.577350269189626
  0.005608704082588  0.671297344269523  0.671297344269523  0.314196994182586
  0.005158237711805  0.289246562757544  0.289246562757544  0.912509096867474
  0.005518771467274  0.444693317871744  0.444693317871744  0.777493219314767
  0.004106777028169  0.129933544765007  0.129933544765007  0.982972302707253
  0.005051846064615  0.345770219761128  0.000000000000000  0.938319218137592
  0.005530248916233  0.159041710538353  0.836036015482459  0.525118572443642
   total no. of   reducible points: 194; test:  1.00000000
 -0.055226399197273  1.000000000000000  0.000000000000000  0.000000000000000
  0.004450274607445  0.577350269189626  0.577350269189626  0.577350269189626
  0.004496841067921  0.449204468739761  0.449204468739761  0.772289253148364
  0.005049153450479  0.252041949021020  0.252041949021020  0.934317778845812
  0.003976408018052  0.698190665844724  0.698190665844724  0.158302205463478
  0.004401400650381  0.658740524346096  0.658740524346096  0.363485684956727
  0.017245443505444  0.040385440500977  0.040385440500977  0.998367683967727
  0.004231083095357  0.582384230971558  0.000000000000000  0.812913653173365
  0.005198069864064  0.354587739051869  0.000000000000000  0.935022745880593
  0.004695720972569  0.227218180899819  0.486466153588665  0.843636521068894
   total no. of   reducible points: 230; test:  1.00000000
 -0.001313769127327  1.000000000000000  0.000000000000000  0.000000000000000
 -0.002522728704859  0.707106781186547  0.707106781186547  0.000000000000000
  0.004186853881701  0.577350269189626  0.577350269189626  0.577350269189626
  0.005315167977811  0.703937339158548  0.703937339158548  0.094575076403713
  0.004047142377086  0.101252624857241  0.101252624857241  0.989694807462905
  0.004112482394407  0.464744872642054  0.464744872642054  0.753673939250816
  0.003595584899759  0.327742065497163  0.327742065497163  0.886098344997499
  0.004256131351428  0.662033866369997  0.662033866369997  0.351315128564633
  0.004229582700647  0.850650808352040  0.000000000000000  0.525731112119134
  0.004080914225781  0.323348454269290  0.115311201100970  0.939227929749916
  0.004071467593831  0.231479015871260  0.524493924092236  0.819343388819120
   total no. of   reducible points: 266; test:  1.00000000
  0.000854591172513  1.000000000000000  0.000000000000000  0.000000000000000
  0.003599119285026  0.577350269189626  0.577350269189626  0.577350269189626
  0.003449788424306  0.351564034557011  0.351564034557011  0.867643624544083
  0.003604822601420  0.656632941021961  0.656632941021961  0.371034178384821
  0.003576729661743  0.472905413258100  0.472905413258100  0.743452042987556
  0.002352101413689  0.096183085226148  0.096183085226148  0.990705621379408
  0.003108953122414  0.221964523629418  0.221964523629418  0.949454317226443
  0.003650045807677  0.701176641608955  0.701176641608955  0.129238672710514
  0.002982344963172  0.264415288706066  0.000000000000000  0.964408914879206
  0.003600820932216  0.571895589187896  0.000000000000000  0.820326419827759
  0.003571540554273  0.251003475177047  0.800072749407395  0.544867737258077
  0.003392312205006  0.123354853258333  0.412772408316853  0.902442529533000
   total no. of   reducible points: 302; test:  1.00000000
  0.003006796749454  1.000000000000000  0.000000000000000  0.000000000000000
  0.003050627745651  0.577350269189626  0.577350269189626  0.577350269189626
  0.001621104600289  0.706896546391232  0.706896546391232  0.024383301669356
  0.003005701484902  0.479468262571203  0.479468262571203  0.734996850587746
  0.002990992529654  0.192753315487802  0.192753315487802  0.962129055136014
  0.002982170644108  0.693035796132712  0.693035796132712  0.198501311223365
  0.002721564237311  0.360830211552009  0.360830211552009  0.860001812127547
  0.003033513795811  0.649848616149617  0.649848616149617  0.394199888605839
  0.003007949555219  0.193294501323034  0.000000000000000  0.981140782843257
  0.002881964603055  0.380049491989930  0.000000000000000  0.924966152698679
  0.002958357626536  0.289955882549957  0.793453785658232  0.535123047718276
  0.003036020026407  0.096841214551040  0.828080150668686  0.552182074349399
  0.002832187403926  0.183343464704166  0.907465826530513  0.378009189874487
   total no. of   reducible points: 350; test:  1.00000000
  0.000526589796822  1.000000000000000  0.000000000000000  0.000000000000000
  0.002548219972003  0.707106781186547  0.707106781186547  0.000000000000000
  0.002512317418927  0.577350269189626  0.577350269189626  0.577350269189626
  0.002530403801186  0.690934630750911  0.690934630750911  0.212646824707552
  0.002014279020919  0.177483605460916  0.177483605460916  0.967987158791473
  0.002501725168403  0.491434263778475  0.491434263778475  0.719016501040843
  0.002513267174598  0.645666470742426  0.645666470742426  0.407712664897770
  0.002302694782227  0.286128901030764  0.286128901030764  0.914472801120872
  0.001462495621595  0.075680843671780  0.075680843671780  0.994255912631278
  0.002445373437313  0.392725976336800  0.392725976336800  0.831584400419232
  0.002417442375639  0.881813287779429  0.000000000000000  0.471598691151316
  0.001910951282180  0.977642811118265  0.000000000000000  0.210272522857307
  0.002416930044325  0.205482369640304  0.868946032287241  0.450233038258263
  0.002512236854563  0.590515704892527  0.799927854385729  0.106801826075805
  0.002496644054553  0.555015236107681  0.771746262691590  0.310428403516654
  0.002236607760438  0.937180985855372  0.334436314534346  0.099217696364292
   total no. of   reducible points: 434; test:  1.00000000
  0.000309512129531  1.000000000000000  0.000000000000000  0.000000000000000
  0.001852379698597  0.577350269189626  0.577350269189626  0.577350269189626
  0.001871790639278  0.704095493822747  0.704095493822747  0.092190407076898
  0.001858812585438  0.680774406645524  0.680774406645524  0.270356088359165
  0.001852028828296  0.637254693925875  0.637254693925875  0.433373868777154
  0.001846715956151  0.504441970780036  0.504441970780036  0.700768575373573
  0.001818471778163  0.421576178401097  0.421576178401097  0.802836877335274
  0.001749564657281  0.331792073647212  0.331792073647212  0.883078727934133
  0.001617210647254  0.238473670142189  0.238473670142189  0.941414158220403
  0.001384737234852  0.145903644915776  0.145903644915776  0.978480583762694
  0.000976433116505  0.060950341155072  0.060950341155072  0.996278129754016
  0.001857161196774  0.611684344200988  0.000000000000000  0.791101929626902
  0.001705153996396  0.396475534819986  0.000000000000000  0.918045287711454
  0.001300321685886  0.172478200990772  0.000000000000000  0.985013335028002
  0.001842866472905  0.561026380862206  0.351828092773352  0.749310611904116
  0.001802658934377  0.474239284255198  0.263471665593795  0.840047488359050
  0.001849830560444  0.598412649788538  0.181664084036021  0.780320742479920
  0.001713904507107  0.379103540769556  0.172079522565688  0.909213475092374
  0.001555213603397  0.277867319058624  0.082130215819325  0.957102074310073
  0.001802239128009  0.503356427107512  0.089992058420749  0.859379855890721
   total no. of   reducible points: 590; test:  1.00000000
  0.000219294208818  1.000000000000000  0.000000000000000  0.000000000000000
  0.001436433617319  0.707106781186547  0.707106781186547  0.000000000000000
  0.001421940344336  0.577350269189626  0.577350269189626  0.577350269189626
  0.000679812351105  0.050872044105024  0.050872044105024  0.997408677652823
  0.000991318423529  0.122819879017883  0.122819879017883  0.984799753572301
  0.001180207833239  0.202689081440879  0.202689081440879  0.958036675983391
  0.001296599602081  0.284774515646429  0.284774515646429  0.915317950483155
  0.001365871427428  0.365671907897803  0.365671907897803  0.855901928697887
  0.001402988604775  0.442826488671347  0.442826488671347  0.779621319527635
  0.001418645563596  0.514061962724974  0.514061962724974  0.686644447264154
  0.001421376741852  0.630640121916680  0.630640121916680  0.452311920313658
  0.001423996475491  0.671688333202261  0.671688333202261  0.312521305001653
  0.001431554042179  0.697979268533688  0.697979268533688  0.160155803498829
  0.000925440149987  0.144686567419531  0.000000000000000  0.989477537495599
  0.001250239995054  0.339026347541122  0.000000000000000  0.940776878793759
  0.001394365843329  0.533580465126351  0.000000000000000  0.845749305193653
  0.001127089094672  0.069440243933494  0.235518789424233  0.969385863498432
  0.001345753760911  0.226900410952946  0.410218247404573  0.883310360522113
  0.001424957283317  0.080255746077753  0.621430241748161  0.779348105702661
  0.001261523341238  0.146799952789657  0.324528434571739  0.934414827052402
  0.001392547106053  0.157150776982473  0.522448218969663  0.838064133458312
  0.001418761677878  0.236570299315725  0.601754663408956  0.762840624604670
  0.001338366684480  0.077148158667657  0.434657551614116  0.897285336132833
  0.001393700862676  0.306293666621073  0.490882658903762  0.815609223203975
  0.001415914757467  0.382247737952479  0.564876814909950  0.731300793659766
   total no. of   reducible points: 770; test:  1.00000000
  0.000143829419053  1.000000000000000  0.000000000000000  0.000000000000000
  0.001125772288287  0.577350269189626  0.577350269189626  0.577350269189626
  0.000494802934195  0.042929635453413  0.042929635453413  0.998155345023847
  0.000735799010913  0.105142685408640  0.105142685408640  0.988883224354686
  0.000888913277130  0.175002486762309  0.175002486762309  0.968890220434707
  0.000988834783892  0.247765337965026  0.247765337965026  0.936602730407163
  0.001053299681709  0.320656712395596  0.320656712395596  0.891267942647606
  0.001092778807015  0.391652074984998  0.391652074984998  0.832596723702352
  0.001114389394063  0.459082587418762  0.459082587418762  0.760582905315251
  0.001123724788052  0.521456388841586  0.521456388841586  0.675400969108414
  0.001125239325244  0.625317024465420  0.625317024465420  0.466858905695743
  0.001126153271816  0.663792674452317  0.663792674452317  0.344613654237438
  0.001130286931124  0.691041039849830  0.691041039849830  0.211954151850184
  0.001134986534364  0.705290700745776  0.705290700745776  0.071624401449956
  0.000682336792711  0.123668676265799  0.000000000000000  0.992323565431490
  0.000945415816045  0.294077711446839  0.000000000000000  0.955781512496548
  0.001074429975386  0.469775384920765  0.000000000000000  0.882785980701182
  0.001129300086569  0.633456324113957  0.000000000000000  0.773778447257375
  0.000843688450090  0.059740486141813  0.202912875277752  0.977372722845310
  0.001075255720449  0.137576040847364  0.460262194248405  0.877058461865803
  0.001108577236864  0.339101652633629  0.503067399966204  0.794942299964208
  0.000956647532378  0.127167519143982  0.281760642244213  0.951020169374390
  0.001080663250717  0.269312074041351  0.433156129172016  0.860143461601762
  0.001126797131196  0.141978645260192  0.625616735858081  0.767102186220558
  0.001022568715358  0.067092846007383  0.379839521685916  0.922616110730809
  0.001108960267713  0.070577381832562  0.551750542142352  0.831017552413474
  0.001122790653436  0.278388847788215  0.602961915615919  0.747620610834086
  0.001032401847117  0.197957893891741  0.358960632958910  0.912118378409121
  0.001107249382284  0.208730706110327  0.534866643813548  0.818748536281022
  0.001121780048520  0.405512213787284  0.567499754607437  0.716591845467024
   total no. of   reducible points: 974; test:  1.00000000
  0.000110518923327  1.000000000000000  0.000000000000000  0.000000000000000
  0.000920523273809  0.707106781186547  0.707106781186547  0.000000000000000
  0.000913315978644  0.577350269189626  0.577350269189626  0.577350269189626
  0.000369042189802  0.037126364496571  0.037126364496571  0.998620681799919
  0.000560399092868  0.091400604122622  0.091400604122622  0.991610739722014
  0.000686529762928  0.153107785246991  0.153107785246991  0.976276606394685
  0.000772033855115  0.218092889166061  0.218092889166061  0.951247067480579
  0.000830154595889  0.283987453220018  0.283987453220018  0.915806886208668
  0.000868669255018  0.349117760096376  0.349117760096376  0.869616915181954
  0.000892707628585  0.412143146144431  0.412143146144431  0.812573722299916
  0.000906082023857  0.471899362714913  0.471899362714913  0.744729469632107
  0.000911977725494  0.527314545284234  0.527314545284234  0.666242253736104
  0.000912872013860  0.620947533244402  0.620947533244402  0.478380938076952
  0.000913071493569  0.656972271185729  0.656972271185729  0.369830866459426
  0.000915287378455  0.684178830907014  0.684178830907014  0.252583955700718
  0.000918743627432  0.701260433012363  0.701260433012363  0.128326186659723
  0.000517697731297  0.107238221547817  0.000000000000000  0.994233354821322
  0.000733114368210  0.258206895949697  0.000000000000000  0.966089643296119
  0.000846323283638  0.417275295530672  0.000000000000000  0.908780131681911
  0.000903112269425  0.570036691179250  0.000000000000000  0.821619237061433
  0.000648577845316  0.982798601826395  0.177177402261533  0.052106394770113
  0.000743503091098  0.962424923032623  0.247571646342629  0.111564095715648
  0.000799852789184  0.940200799412881  0.335461628906649  0.059058888532354
  0.000810173149747  0.932082204014320  0.317361524661198  0.174655167757863
  0.000848338957459  0.904367419939330  0.409026842708536  0.121723505109599
  0.000855629925731  0.891240756007475  0.385429115066922  0.239027847938172
  0.000880320867974  0.867643562846271  0.493222118485128  0.062662506241542
  0.000881104818243  0.858197998604162  0.478532067592243  0.185750519454734
  0.000885028234127  0.839675362404986  0.450742259315706  0.302946697352898
  0.000902134229904  0.816528856402219  0.563212302076210  0.126777480068428
  0.000901009167711  0.801546937078353  0.543430356969390  0.249411216236224
  0.000902269293843  0.777356306907035  0.512351848641987  0.364983226059765
  0.000915801617469  0.766162121390039  0.639427963474910  0.064245492242208
  0.000913157800319  0.755358414353351  0.626980550902439  0.190601822277923
  0.000910781357948  0.734430575755950  0.603116169309631  0.311227594714961
  0.000910576025897  0.704383718402177  0.569370249846844  0.423864478152234
   total no. of   reducible points:1202; test:  1.00000000
  0.000077771607433  1.000000000000000  0.000000000000000  0.000000000000000
  0.000755764641300  0.577350269189626  0.577350269189626  0.577350269189626
  0.000284163380609  0.032292906634139  0.032292906634139  0.998956623864238
  0.000437441912705  0.080367332714622  0.080367332714622  0.993520097262594
  0.000541717474087  0.135428996053165  0.135428996053165  0.981487633165117
  0.000614800089136  0.193896386111443  0.193896386111443  0.961669580940275
  0.000666439448580  0.253734371501127  0.253734371501127  0.933401166400522
  0.000702503935692  0.313525143475257  0.313525143475257  0.896328047546008
  0.000726851178925  0.372155833937534  0.372155833937534  0.850294108254619
  0.000742263753421  0.428680957519570  0.428680957519570  0.795276853253136
  0.000750954503584  0.482251012828299  0.482251012828299  0.731346649169981
  0.000754853505772  0.532067933356626  0.532067933356626  0.658640591360127
  0.000755408896977  0.617299819539427  0.617299819539427  0.487731345715221
  0.000755314717444  0.651067984912748  0.651067984912748  0.390155043595885
  0.000756476765329  0.677731525168736  0.677731525168736  0.285236672931301
  0.000758799180852  0.696310941064874  0.696310941064874  0.174075117999957
  0.000760826183203  0.705893500983175  0.705893500983175  0.058555363028785
  0.000402168044787  0.995554619409186  0.000000000000000  0.094185985013862
  0.000580487179395  0.973411590179421  0.000000000000000  0.229063039585986
  0.000679215195595  0.927569373238863  0.000000000000000  0.373650983980055
  0.000733674121129  0.856802242279510  0.000000000000000  0.515645147000147
  0.000758186630099  0.762349555371937  0.000000000000000  0.647165477620840
  0.000753825785980  0.570752290889222  0.438702803988950  0.694104943230444
  0.000748351724705  0.519646338840308  0.385890841476262  0.762270254565011
  0.000737176366111  0.464633753121535  0.330193737234385  0.821637128756598
  0.000718344889576  0.406390169755769  0.272542357356378  0.872105322408083
  0.000689581552982  0.345632946664309  0.213951023749525  0.913653558859526
  0.000648010580179  0.283139512105033  0.155592230978665  0.946373644151191
  0.000589755889659  0.219768202292533  0.098928789796861  0.970523071240677
  0.000509570884925  0.156469609865035  0.045986429106755  0.986611630545015
  0.000753690642891  0.602735667372129  0.337662514017343  0.722975616397235
  0.000747250596558  0.549603232025510  0.282230130972799  0.786309379645309
  0.000734301713228  0.492170775523457  0.224863234259254  0.840954489612314
  0.000713087158218  0.430942299859848  0.166622472345648  0.886862833757808
  0.000681702203211  0.366410818231367  0.108696490182217  0.924082347686118
  0.000638094114560  0.299018905775844  0.052519897841201  0.952800794667682
  0.000755038137792  0.626872401314500  0.229752365755002  0.744476220506856
  0.000747864664014  0.570732414483461  0.172308060709380  0.802853936449496
  0.000733591872060  0.509636090196037  0.114023846539051  0.852801042441985
  0.000711012052766  0.443872993831246  0.056115220958825  0.894330949550573
  0.000757136397869  0.641997847108239  0.116417442314087  0.757816431224233
  0.000748990832908  0.581721806180261  0.057975895314452  0.811319009870262
   total no. of   reducible points:1454; test:  1.00000000
  qrot: 

              1        2        3      
    1    1.0000   0.0000   0.0000
    2    0.0000   1.0000   0.0000
    3    0.0000   0.0000   1.0000
  me                     0   done genpts
  me                     2   done genpts
  me                     5   done genpts
  me                     6   done genpts
  me                     7   done genpts
  me                     1   done genpts
  me                     3   done genpts
  me                     4   done genpts
  me                     0   done uprt
  me                     1   done uprt
  me                     2   done uprt
  me                     3   done uprt
  me                     4   done uprt
  me                     5   done uprt
  me                     6   done uprt
  me                     7   done uprt
  me                     0  done mem
  me                     2  done mem
  me                     3  done mem
  me                     4  done mem
  me                     5  done mem
  me                     6  done mem
  me                     7  done mem
  me                     1  done mem
  dftinpanae: itol2e                     8  iaoacc                    14  tol_rho    1.0000000000000000E-010

            General Information
            -------------------
          SCF calculation type: DFT
          Wavefunction type:  spin polarized.
          No. of atoms     :     1
          No. of electrons :     9
           Alpha electrons :     5
            Beta electrons :     4
          Charge           :     0
          Spin multiplicity:     2
          Use of symmetry is: off; symmetry adaption is: off
          Maximum number of iterations:  50
          AO basis - number of functions:    55
                     number of shells:    14
          Convergence on energy requested:  1.00D-06
          Convergence on density requested:  1.00D-05
          Convergence on gradient requested:  5.00D-04

              XC Information
              --------------
                     Hartree-Fock (Exact) Exchange  1.000          
                     LC-wPBE(h)Exchange Functional  1.000          
            Perdew 1991 LDA Correlation Functional  1.000 local    
           PerdewBurkeErnz. Correlation Functional  1.000 non-local

           Range-Separation Parameters        
           ---------------------------
           Alpha           :  0.00
           Beta            :  1.00
           Gamma           :  0.40
           Short-Range HF  :     F

             Grid Information
             ----------------
          Grid used for XC integration:  xfine     
          Radial quadrature: Mura-Knowles        
          Angular quadrature: Lebedev. 
          Tag              B.-S. Rad. Rad. Pts. Rad. Cut. Ang. Pts.
          ---              ---------- --------- --------- ---------
          F                   0.50      100           7.0      1454
          Grid pruning is: on 
          Number of quadrature shells:   100
          Spatial weights used:  Erf1

          Convergence Information
          -----------------------
          Convergence aids based upon iterative change in 
          total energy or number of iterations. 
          Levelshifting, if invoked, occurs when the 
          HOMO/LUMO gap drops below (HL_TOL):  1.00D-02
          DIIS, if invoked, will attempt to extrapolate 
          using up to (NFOCK): 10 stored Fock matrices.

                    Damping( 0%)  Levelshifting(0.5)       DIIS
                  --------------- ------------------- ---------------
          dE  on:    start            ASAP                start   
          dE off:    2 iters         50 iters            50 iters 


      Screening Tolerance Information
      -------------------------------
          Density screening/tol_rho:  1.00D-10
          AO Gaussian exp screening on grid/accAOfunc:  14
          CD Gaussian exp screening on grid/accCDfunc:  20
          XC Gaussian exp screening on grid/accXCfunc:  20
          Schwarz screening/accCoul:  1.00D-08



                         Geometry "geometry" -> "geometry"
                         ---------------------------------

 Output coordinates in angstroms (scale by  1.889725989 to convert to a.u.)

  No.       Tag          Charge          X              Y              Z
 ---- ---------------- ---------- -------------- -------------- --------------
    1 F                    9.0000     0.00000000     0.00000000     0.00000000

      Atomic Mass 
      ----------- 

      F                 18.998400


 Effective nuclear repulsion energy (a.u.)       0.0000000000

            Nuclear Dipole moment (a.u.) 
            ----------------------------
        X                 Y               Z
 ---------------- ---------------- ----------------
     0.0000000000     0.0000000000     0.0000000000

  
  CAM type calculations without CDFIT are
  only available with the direct option.
  Forcing Direct SCF
  


     <<<<<<    Before call to DFT_SCF.    >>>>>>
     <<<<<< date:  Apr 24  time: 11:13:35 >>>>>>


 Setting tolerance for linear dependence to 1.00D-05



 Setting tolerance for linear dependence to 1.00D-05

 Setting tolerance for linear dependence to 1.00D-05

 Setting tolerance for linear dependence to 1.00D-05

 Setting tolerance for linear dependence to 1.00D-05

 Setting tolerance for linear dependence to 1.00D-05
 Setting tolerance for linear dependence to 1.00D-05
 Setting tolerance for linear dependence to 1.00D-05
  lindep tolerance =    1.0000000000000001E-005
  lindep tolerance =    1.0000000000000001E-005
  lindep tolerance =    1.0000000000000001E-005
  lindep tolerance =    1.0000000000000001E-005
  lindep tolerance =    1.0000000000000001E-005
  lindep tolerance =    1.0000000000000001E-005
  lindep tolerance =    1.0000000000000001E-005
  lindep tolerance =    1.0000000000000001E-005


     <<<<<<    Before 3c-2e initialize.   >>>>>>
     <<<<<< date:  Apr 24  time: 11:13:35 >>>>>>


 Setting fock-build task_bf   :      -1
                    maxquartet:   10000
                    maxeri    :  129600
                    maxscr    :       0
                    intacc    : 0.0D+00
                    denscreen : T
                    dentol    : 1.0D-06


      Superposition of Atomic Density Guess
      -------------------------------------

 Sum of atomic energies:         -99.41279054

      Non-variational initial energy
      ------------------------------

 Total energy =     -99.054581
 1-e energy   =    -139.239488
 2-e energy   =      40.184907
 HOMO         =      -0.592042
 LUMO         =       0.159039


 Setting fock-build task_bf   :      -1
                    maxquartet:   10000
                    maxeri    :  129600
                    maxscr    :       0
                    intacc    : 0.0D+00
                    denscreen : T
                    dentol    : 1.0D-06


 Wrote molecular orbitals to ./f.movecs

  WARNING: movecs_in_org=atomic not equal to movecs_in=./f.movecs
   Time after variat. SCF:      0.3

 Setting fock-build task_bf   :      -1
                    maxquartet:   10000
                    maxeri    :  129600
                    maxscr    :       0
                    intacc    : 0.0D+00
                    denscreen : T
                    dentol    : 1.0D-06

   Time prior to 1st pass:      0.3


     <<<<<<      Before SCF iter loop.    >>>>>>
     <<<<<< date:  Apr 24  time: 11:13:35 >>>>>>

           DAMPING=T LEVELSHIFTING=F DIISING=T
          itol2e= 8 iAOacc=12 iXCacc=20


     <<<<<<            calling 1-e int    >>>>>>
     <<<<<< date:  Apr 24  time: 11:13:35 >>>>>>

    Kinetic Matrix Time:          0.0s

           Kinetic energy =     98.765643056920

    Potential Matrix Time:          0.0s


     <<<<<<    Before call to GETVXC.     >>>>>>
     <<<<<< date:  Apr 24  time: 11:13:35 >>>>>>



     <<<<<<    Before call to fock_2e.    >>>>>>
     <<<<<< date:  Apr 24  time: 11:13:35 >>>>>>



     <<<<<<     After call to fock_2e.    >>>>>>
     <<<<<< date:  Apr 24  time: 11:13:35 >>>>>>

    Fock_2e Build Time:          0.1s
  *** grid_quadv0:                    calc_type:                    1
  *** grid_quadv0:                    grid_written: F
  *** grid_quadv0:                    grad: T
  *** grid_quadv0:                    kske: F
  *** grid_quadv0:                    kslap: F
  *** grid_quadv0:                    do_scf: T
  *** grid_quadv0:                    calc_type:                    1
  *** grid_quadv0:                    grid_written: F
  *** grid_quadv0:                    grad: T
  *** grid_quadv0:                    kske: F
  *** grid_quadv0:                    kslap: F
  *** grid_quadv0:                    do_scf: T
  *** grid_quadv0:                    fde_option:                    0
  *** grid_quadv0:                    n_per_rec:                 3070
  *** grid_quadv0:                    calc_type:                    1
  *** grid_quadv0:                    grid_written: F
  *** grid_quadv0:                    grad: T
  *** grid_quadv0:                    kske: F
  *** grid_quadv0:                    kslap: F
  *** grid_quadv0:                    do_scf: T
  *** grid_quadv0:                    fde_option:                    0
  *** grid_quadv0:                    n_per_rec:                 3070
  *** grid_quadv0:                    calc_type:                    1
  *** grid_quadv0:                    grid_written: F
  *** grid_quadv0:                    grad: T
  *** grid_quadv0:                    kske: F
  *** grid_quadv0:                    kslap: F
  *** grid_quadv0:                    do_scf: T
  *** grid_quadv0:                    fde_option:                    0
  *** grid_quadv0:                    n_per_rec:                 3070
  *** grid_quadv0:                    calc_type:                    1
  *** grid_quadv0:                    grid_written: F
  *** grid_quadv0:                    grad: T
  *** grid_quadv0:                    kske: F
  *** grid_quadv0:                    kslap: F
  *** grid_quadv0:                    do_scf: T
  *** grid_quadv0:                    fde_option:                    0
  *** grid_quadv0:                    n_per_rec:                 3070
  *** grid_quadv0:                    fde_option:                    0
  *** grid_quadv0:                    n_per_rec:                 3070
  *** grid_quadv0:                    calc_type:                    1
  *** grid_quadv0:                    grid_written: F
  *** grid_quadv0:                    grad: T
  *** grid_quadv0:                    kske: F
  *** grid_quadv0:                    kslap: F
  *** grid_quadv0:                    do_scf: T
  *** grid_quadv0:                    fde_option:                    0
  *** grid_quadv0:                    n_per_rec:                 3070
  *** grid_quadv0:                    calc_type:                    1
  *** grid_quadv0:                    grid_written: F
  *** grid_quadv0:                    grad: T
  *** grid_quadv0:                    kske: F
  *** grid_quadv0:                    kslap: F
  *** grid_quadv0:                    do_scf: T
  *** grid_quadv0:                    fde_option:                    0
  *** grid_quadv0:                    n_per_rec:                 3070
  *** grid_quadv0:                    calc_type:                    1
  *** grid_quadv0:                    grid_written: F
  *** grid_quadv0:                    grad: T
  *** grid_quadv0:                    kske: F
  *** grid_quadv0:                    kslap: F
  *** grid_quadv0:                    do_scf: T
  *** grid_quadv0:                    fde_option:                    0
  *** grid_quadv0:                    n_per_rec:                 3070
   4: nuse=   8 avail= 12500000Mb on .
   5: nuse=   8 avail= 12500000Mb on .
   6: nuse=   8 avail= 12500000Mb on .
   7: nuse=   8 avail= 12500000Mb on .
   0: nuse=   8 avail= 12500000Mb on .
   1: nuse=   8 avail= 12500000Mb on .
   2: nuse=   8 avail= 12500000Mb on .
   3: nuse=   8 avail= 12500000Mb on .
 l_cube input   11.00

  atom type   l_cube   no. cubes   segmts   rad   sub
 ----------- -------- ----------- -------- ----- -----
        1      8.67        34         3      13     8

 Grid_pts file          = ./f.gridpts.0
 Record size in doubles =  12289        No. of grid_pts per rec  =   3070
 Max. records in memory =      8        Max. recs in file   = 126656358

 me   0 NQTOTC NQ/cube   15285     849
 me   1 NQTOTC NQ/cube    7232    7232
 me   2 NQTOTC NQ/cube    8190    2730
 me   3 NQTOTC NQ/cube    9077    3025
 me   4 NQTOTC NQ/cube    7834    3917
 me   5 NQTOTC NQ/cube    7284    3642
 me   6 NQTOTC NQ/cube    7179    2393
 me   7 NQTOTC NQ/cube    8475    4237

 XC quadr. integrated density :       9.000000 npts:    70304 nctrs:        1

    Fock_xc Build Time:          0.1s


     <<<<<<    Before call to GETVCOUL.   >>>>>>
     <<<<<< date:  Apr 24  time: 11:13:35 >>>>>>



     <<<<<<    End of parallel region.    >>>>>>
     <<<<<< date:  Apr 24  time: 11:13:35 >>>>>>

    Total Fock Matrix Build Time:          0.2s
 Etnew, Ecore, Ecoul, Exc(1), Exc(2), Totsic:   -99.686860040834702       -138.66604787596742        49.213683032528863       -10.234495197396139        0.0000000000000000        0.0000000000000000     
  delta =   -99.686860040834702     


         Total DFT energy =      -99.686860040835
      One electron energy =     -138.666047875967
           Coulomb energy =       49.213683032529
  delta =   -99.686860040834702     
    Exchange-Corr. energy =      -10.234495197396
 Nuclear repulsion energy =        0.000000000000

 Numeric. integr. density =        8.999999995303

     Total iterative time =      1.1s


  delta =   -99.686860040834702     
  delta =   -99.686860040834702     
  delta =   -99.686860040834702     
  delta =   -99.686860040834702     
  delta =   -99.686860040834702     
  delta =   -99.686860040834702     


     <<<<<<        calling diis driver    >>>>>>
     <<<<<< date:  Apr 24  time: 11:13:35 >>>>>>

 nhist                     1  pulay matrix 
   0.0000E+00
  -1.0000E+00   1.7987E-01


     <<<<<<         called diis driver    >>>>>>
     <<<<<< date:  Apr 24  time: 11:13:35 >>>>>>


 global array: fock transf[1:55,1:55],  handle: -940 

            1           2           3           4           5           6  
       ----------- ----------- ----------- ----------- ----------- -----------
   1       8.57468     0.00000     0.00000     0.00000     5.90157    -0.00000
   2       0.00000    16.57510     0.02277     0.00255    -0.00000    -0.00181
   3       0.00000     0.02277    16.54882    -0.00452    -0.00000     0.00007
   4       0.00000     0.00255    -0.00452    16.58764    -0.00000    -0.00297
   5       5.90157    -0.00000    -0.00000    -0.00000    12.10950     0.00000
   6      -0.00000    -0.00181     0.00007    -0.00297     0.00000     6.59566
   7       0.00000     0.65136    -1.82914     0.40731    -0.00000    -0.00719
   8       0.00000     1.77022     0.75320     0.53066     0.00000    -0.01334
   9      -0.00000     0.64083    -0.18046    -1.87923     0.00000     0.01240
  10      -2.68954    -0.00000    -0.00000     0.00000    -3.30688    -0.00000
  11       0.00000    -0.00005    -0.00129     0.00008     0.00000    -0.00000
  12      -0.00000     0.00003    -0.00001     0.00135    -0.00000    -0.00001
  13      -0.00000    -0.00292     0.00301     0.00148     0.00000     0.00001
  14      -0.42036    -0.00000    -0.00000     0.00000     0.92077    -0.00000
  15      -0.00000    -0.33108     0.02962    -0.61563    -0.00000    -0.02383
  16      -0.00000    -0.58628    -0.21877     0.30448     0.00000    -0.00142
  17      -0.00000     0.18098    -0.65786    -0.13024     0.00000    -0.00002
  18      -0.00274     0.00000     0.00000    -0.00000    -0.01083    -0.00000
  19       0.00104    -0.00000     0.00000    -0.00000     0.00411     0.00000
  20      -0.00080    -0.00000     0.00000     0.00000    -0.00318     0.00000
  21       0.00000    -0.00086     0.00004    -0.00140     0.00000     2.52455
  22       0.00015     0.00000     0.00000    -0.00000     0.00060    -0.00000
  23       0.00209    -0.00000    -0.00000    -0.00000     0.00827     0.00000
  24       0.00000     0.00074    -0.00041     0.00013    -0.00000     0.00007
  25      -0.00000    -0.00066     0.00057     0.00071     0.00000     0.00002
  26      -0.00000     0.00043    -0.00061    -0.00016     0.00000     0.00002
  27       0.00212    -0.00000    -0.00000     0.00000     0.00333    -0.00000
  28       0.00005     0.00000    -0.00000    -0.00000     0.00008    -0.00000
  29      -0.00088     0.00000    -0.00000     0.00000    -0.00138    -0.00000
  30      -0.00000     0.40978    -0.03357    -0.11214     0.00000    -0.00341
  31      -0.00000     0.11927     0.19573     0.36178    -0.00000    -0.01035
  32       0.00000     0.01564    -0.37256     0.20225    -0.00000    -0.00540
  33       0.00000     0.10623    -0.58972     0.53698    -0.00000     0.00141
  34      -0.00000     0.30266     0.52780     0.53018    -0.00000     0.00156
  35      -0.00000    -0.73995     0.12196     0.29232    -0.00000    -0.00040
  36      -0.33890     0.00000     0.00000    -0.00000    -1.43538     0.00000
  37       0.00151    -0.00000    -0.00000    -0.00000     0.00238     0.00000
  38      -0.00046     0.00000     0.00000    -0.00000    -0.00073     0.00000
  39       0.00023    -0.00000    -0.00000     0.00000    -0.00092    -0.00000
  40      -0.00001    -0.00000    -0.00000     0.00000     0.00003     0.00000
  41       0.00008    -0.00000     0.00000     0.00000    -0.00033    -0.00000
  42      -0.00000    -0.00316    -0.00375     0.00131    -0.00000    -0.00228
  43       0.00000    -0.00233    -0.00038    -0.00534     0.00000    -0.00902
  44      -0.00000     0.00353    -0.00028    -0.00200     0.00000    -0.00198
  45      -0.00008     0.00000     0.00000     0.00000     0.00030    -0.00000
  46       0.00015     0.00000    -0.00000    -0.00000    -0.00060    -0.00000
  47       0.12234    -0.00000    -0.00000     0.00000    -0.68086     0.00000
  48      -0.00000    -0.31695     0.02449     0.16157     0.00000     0.00147
  49       0.00000     0.13217    -0.17325     0.28199     0.00000    -0.01641
  50       0.00000     0.09533     0.31263     0.14401    -0.00000    -0.00867
  51      -0.48869    -0.00000    -0.00000     0.00000    -1.09828     0.00000
  52      -0.00000     0.07266     0.06662     0.14282     0.00000    -0.00963
  53       0.00000    -0.15791     0.01832     0.07190     0.00000     0.00135
  54      -0.00000     0.01227    -0.16146     0.06741     0.00000    -0.00417
  55       0.22118    -0.00000    -0.00000     0.00000     0.41797    -0.00000

            7           8           9          10          11          12  
       ----------- ----------- ----------- ----------- ----------- -----------
   1       0.00000     0.00000    -0.00000    -2.68954     0.00000    -0.00000
   2       0.65136     1.77022     0.64083    -0.00000    -0.00005     0.00003
   3      -1.82914     0.75320    -0.18046    -0.00000    -0.00129    -0.00001
   4       0.40731     0.53066    -1.87923     0.00000     0.00008     0.00135
   5      -0.00000     0.00000     0.00000    -3.30688     0.00000    -0.00000
   6      -0.00719    -0.01334     0.01240    -0.00000    -0.00000    -0.00001
   7       4.09563    -0.00699    -0.00988    -0.00000     0.00254     0.00131
   8      -0.00699     4.11908     0.00252     0.00000     0.00324     0.00343
   9      -0.00988     0.00252     4.11354     0.00000     0.00431    -0.00584
  10      -0.00000     0.00000     0.00000    18.50683     0.00000     0.00000
  11       0.00254     0.00324     0.00431     0.00000     6.62071    -0.00151
  12       0.00131     0.00343    -0.00584     0.00000    -0.00151     6.59500
  13      -0.01303    -0.00483    -0.00967    -0.00000     0.00452    -0.00276
  14      -0.00000     0.00000     0.00000     3.18018    -0.00000     0.00000
  15       0.56359     0.95806    -1.01047    -0.00000    -0.00060     0.00787
  16      -0.15749     1.13101     0.98555     0.00000     0.01865     0.00130
  17      -1.38920     0.26761    -0.52023     0.00000     0.00192     0.00193
  18      -0.00000    -0.00000    -0.00000     0.00096    -0.00000     0.00000
  19       0.00000    -0.00000    -0.00000    -0.00036    -0.00000     0.00000
  20       0.00000    -0.00000    -0.00000     0.00028    -0.00000    -0.00000
  21      -0.00189    -0.00345     0.00319    -0.00000     0.00001     0.00007
  22       0.00000     0.00000    -0.00000    -0.00005     0.00000    -0.00000
  23      -0.00000    -0.00000    -0.00000    -0.00073    -0.00000    -0.00000
  24       0.00154     0.00205     0.00060     0.00000     1.22570     1.92449
  25      -0.00139    -0.00080    -0.00282    -0.00000    -1.43213     1.63373
  26       0.00198    -0.00014     0.00044    -0.00000    -1.69585     0.01326
  27       0.00000    -0.00000    -0.00000    -0.00622     0.00000    -0.00000
  28      -0.00000    -0.00000     0.00000    -0.00015    -0.00000     0.00000
  29       0.00000    -0.00000    -0.00000     0.00257     0.00000    -0.00000
  30       0.65436     1.43185     1.07821     0.00000     0.00265    -0.00043
  31      -0.31086     1.22726    -1.43046    -0.00000    -0.00120     0.00396
  32       1.75736    -0.32207    -0.66514    -0.00000     0.00122     0.00179
  33       0.79025     0.01399    -0.48029    -0.00000     0.00830     0.00087
  34      -0.32120     0.69999    -0.51572    -0.00000    -0.00551    -0.00122
  35      -0.33791    -0.61314    -0.60338    -0.00000     0.00812     0.00216
  36       0.00000    -0.00000    -0.00000     0.84905     0.00000    -0.00000
  37       0.00000    -0.00000    -0.00000    -0.00444    -0.00000     0.00000
  38       0.00000     0.00000    -0.00000     0.00135     0.00000    -0.00000
  39       0.00000    -0.00000    -0.00000    -0.00480     0.00000    -0.00000
  40       0.00000     0.00000    -0.00000     0.00018     0.00000     0.00000
  41       0.00000    -0.00000     0.00000    -0.00173    -0.00000     0.00000
  42      -0.04056    -0.08337    -0.06866    -0.00000     0.00046    -0.00096
  43      -0.01212    -0.07055     0.09256     0.00000    -0.00059     0.00340
  44      -0.10800     0.03338     0.01230     0.00000     0.00317     0.00079
  45      -0.00000     0.00000    -0.00000     0.00159    -0.00000    -0.00000
  46      -0.00000    -0.00000     0.00000    -0.00314    -0.00000     0.00000
  47      -0.00000     0.00000     0.00000    -2.31130    -0.00000     0.00000
  48      -0.06575    -0.18703    -0.20616     0.00000     0.00376     0.00426
  49       0.20546     0.09580    -0.16788     0.00000     0.00589     0.00611
  50      -0.18153     0.19843    -0.10094    -0.00000    -0.00965     0.00245
  51      -0.00000     0.00000     0.00000     0.20901    -0.00000     0.00000
  52      -0.00498     0.06697    -0.05975     0.00000    -0.00224     0.00331
  53      -0.02413    -0.06100    -0.06309     0.00000     0.00205     0.00231
  54       0.08610    -0.02046    -0.02578     0.00000     0.00653     0.00199
  55      -0.00000     0.00000     0.00000    -0.37941     0.00000    -0.00000

           13          14          15          16          17          18  
       ----------- ----------- ----------- ----------- ----------- -----------
   1      -0.00000    -0.42036    -0.00000    -0.00000    -0.00000    -0.00274
   2      -0.00292    -0.00000    -0.33108    -0.58628     0.18098     0.00000
   3       0.00301    -0.00000     0.02962    -0.21877    -0.65786     0.00000
   4       0.00148     0.00000    -0.61563     0.30448    -0.13024    -0.00000
   5       0.00000     0.92077    -0.00000     0.00000     0.00000    -0.01083
   6       0.00001    -0.00000    -0.02383    -0.00142    -0.00002    -0.00000
   7      -0.01303    -0.00000     0.56359    -0.15749    -1.38920    -0.00000
   8      -0.00483     0.00000     0.95806     1.13101     0.26761    -0.00000
   9      -0.00967     0.00000    -1.01047     0.98555    -0.52023    -0.00000
  10      -0.00000     3.18018    -0.00000     0.00000     0.00000     0.00096
  11       0.00452    -0.00000    -0.00060     0.01865     0.00192    -0.00000
  12      -0.00276     0.00000     0.00787     0.00130     0.00193     0.00000
  13       6.57129    -0.00000    -0.00214    -0.00469     0.00486     0.00000
  14      -0.00000     1.78862    -0.00000    -0.00000     0.00000    -0.00925
  15      -0.00214    -0.00000     5.69422     0.00061     0.00210    -0.00000
  16      -0.00469    -0.00000     0.00061     5.67879    -0.00579    -0.00000
  17       0.00486     0.00000     0.00210    -0.00579     5.67437     0.00000
  18       0.00000    -0.00925    -0.00000    -0.00000     0.00000     4.98860
  19       0.00000     0.00350    -0.00000    -0.00000     0.00000     0.01210
  20      -0.00000    -0.00272     0.00000    -0.00000    -0.00000    -0.00106
  21      -0.00003    -0.00000    -0.01321    -0.00079    -0.00000     0.00000
  22       0.00000     0.00051    -0.00000     0.00000     0.00000    -0.00759
  23      -0.00000     0.00706    -0.00000     0.00000    -0.00000     0.01739
  24      -1.08039     0.00000     0.00374     0.00587    -0.00106    -0.00000
  25       1.28400     0.00000     0.00237    -0.00643     0.00291    -0.00000
  26      -1.87139     0.00000     0.00103    -0.00302    -0.00360    -0.00000
  27       0.00000    -0.00013    -0.00000    -0.00000     0.00000    -3.13333
  28       0.00000    -0.00000     0.00000    -0.00000    -0.00000     0.15837
  29      -0.00000     0.00005    -0.00000    -0.00000     0.00000    -0.15884
  30      -0.00957     0.00000     0.23130     0.91798    -0.38637    -0.00000
  31       0.00461    -0.00000     0.86887     0.01008     0.53567     0.00000
  32      -0.00558    -0.00000     0.48123    -0.46246    -0.77751    -0.00000
  33      -0.00390    -0.00000    -1.66963     0.99210     1.48817     0.00000
  34       0.00574    -0.00000    -1.78201    -0.56559    -1.58626    -0.00000
  35       0.00807    -0.00000     0.30322     2.15790    -1.12150    -0.00000
  36      -0.00000    -0.87736     0.00000    -0.00000    -0.00000     0.02653
  37      -0.00000    -0.00009    -0.00000     0.00000    -0.00000     0.00779
  38      -0.00000     0.00003    -0.00000     0.00000     0.00000    -0.00760
  39       0.00000    -0.00204    -0.00000    -0.00000     0.00000    -0.58703
  40      -0.00000     0.00008    -0.00000     0.00000     0.00000     0.00069
  41       0.00000    -0.00074     0.00000     0.00000    -0.00000     0.05808
  42      -0.00930    -0.00000     0.02354     0.12303    -0.04810    -0.00000
  43       0.00284     0.00000     0.12223    -0.00960     0.03856     0.00000
  44      -0.00700     0.00000     0.03061    -0.06071    -0.12227    -0.00000
  45      -0.00000     0.00068     0.00000    -0.00000    -0.00000    -0.00010
  46       0.00000    -0.00134    -0.00000    -0.00000    -0.00000    -0.00166
  47      -0.00000    -1.33019    -0.00000     0.00000     0.00000     0.00720
  48       0.02306     0.00000     0.01292     0.40096    -0.17956    -0.00000
  49      -0.00918     0.00000    -0.40768     0.07238     0.17548     0.00000
  50       0.01720    -0.00000    -0.20428    -0.12764    -0.36064    -0.00000
  51       0.00000    -0.43203    -0.00000     0.00000    -0.00000     0.01779
  52       0.00493     0.00000    -0.19036    -0.01862    -0.07987    -0.00000
  53       0.01405     0.00000     0.01616     0.17828    -0.09165    -0.00000
  54      -0.01007     0.00000    -0.08691     0.06769     0.16055     0.00000
  55       0.00000     0.07248    -0.00000     0.00000     0.00000    -0.00033

           19          20          21          22          23          24  
       ----------- ----------- ----------- ----------- ----------- -----------
   1       0.00104    -0.00080     0.00000     0.00015     0.00209     0.00000
   2      -0.00000    -0.00000    -0.00086     0.00000    -0.00000     0.00074
   3       0.00000     0.00000     0.00004     0.00000    -0.00000    -0.00041
   4      -0.00000     0.00000    -0.00140    -0.00000    -0.00000     0.00013
   5       0.00411    -0.00318     0.00000     0.00060     0.00827    -0.00000
   6       0.00000     0.00000     2.52455    -0.00000     0.00000     0.00007
   7       0.00000     0.00000    -0.00189     0.00000    -0.00000     0.00154
   8      -0.00000    -0.00000    -0.00345     0.00000    -0.00000     0.00205
   9      -0.00000    -0.00000     0.00319    -0.00000    -0.00000     0.00060
  10      -0.00036     0.00028    -0.00000    -0.00005    -0.00073     0.00000
  11      -0.00000    -0.00000     0.00001     0.00000    -0.00000     1.22570
  12       0.00000    -0.00000     0.00007    -0.00000    -0.00000     1.92449
  13       0.00000    -0.00000    -0.00003     0.00000    -0.00000    -1.08039
  14       0.00350    -0.00272    -0.00000     0.00051     0.00706     0.00000
  15      -0.00000     0.00000    -0.01321    -0.00000    -0.00000     0.00374
  16      -0.00000    -0.00000    -0.00079     0.00000     0.00000     0.00587
  17       0.00000    -0.00000    -0.00000     0.00000    -0.00000    -0.00106
  18       0.01210    -0.00106     0.00000    -0.00759     0.01739    -0.00000
  19       5.01526     0.00340    -0.00000     0.00490    -0.00525    -0.00000
  20       0.00340     4.98278    -0.00000     0.00035     0.00149    -0.00000
  21      -0.00000    -0.00000     4.34938    -0.00000    -0.00000    -0.00002
  22       0.00490     0.00035    -0.00000     4.99326    -0.01387    -0.00000
  23      -0.00525     0.00149    -0.00000    -0.01387     4.99782     0.00000
  24      -0.00000    -0.00000    -0.00002    -0.00000     0.00000     4.34915
  25      -0.00000     0.00000     0.00000    -0.00000    -0.00000     0.00031
  26      -0.00000     0.00000    -0.00001    -0.00000     0.00000    -0.01627
  27       0.05040    -0.21338    -0.00000     0.00431    -0.01010     0.00000
  28      -1.50809    -2.75392     0.00000    -0.00172     0.00118    -0.00000
  29      -2.77262     1.48961     0.00000    -0.00213     0.00260     0.00000
  30      -0.00000    -0.00000    -0.00844    -0.00000    -0.00000     0.01406
  31      -0.00000    -0.00000    -0.02563    -0.00000     0.00000     0.00453
  32       0.00000     0.00000    -0.01339     0.00000    -0.00000     0.00329
  33      -0.00000    -0.00000     0.01056    -0.00000     0.00000     0.00301
  34       0.00000     0.00000     0.01194    -0.00000    -0.00000    -0.00750
  35      -0.00000    -0.00000    -0.00282    -0.00000    -0.00000     0.00801
  36      -0.01006     0.00779     0.00000    -0.00147    -0.02025    -0.00000
  37      -0.00183     0.00090    -0.00000     1.12419     2.93299     0.00000
  38       0.00368    -0.00013     0.00000     2.93635    -1.13976    -0.00000
  39       0.05080    -0.03155    -0.00000    -0.00076     0.00153     0.00000
  40       0.32321     0.49290    -0.00000    -0.00028     0.00016    -0.00000
  41       0.48803    -0.32387    -0.00000    -0.00030     0.00027    -0.00000
  42      -0.00000    -0.00000    -0.00088     0.00000    -0.00000     0.00251
  43      -0.00000    -0.00000    -0.00342    -0.00000     0.00000     0.00133
  44       0.00000     0.00000    -0.00078     0.00000     0.00000    -0.00351
  45       0.00026     0.00006    -0.00000    -0.54477    -0.22785    -0.00000
  46       0.00058    -0.00008    -0.00000    -0.22565     0.54326     0.00000
  47      -0.00273     0.00211     0.00000    -0.00040    -0.00550    -0.00000
  48      -0.00000    -0.00000     0.00073    -0.00000     0.00000    -0.00235
  49      -0.00000    -0.00000    -0.00792     0.00000     0.00000     0.00577
  50       0.00000     0.00000    -0.00414    -0.00000    -0.00000    -0.00533
  51      -0.00674     0.00523     0.00000    -0.00099    -0.01358    -0.00000
  52       0.00000     0.00000    -0.02319    -0.00000    -0.00000    -0.00159
  53      -0.00000    -0.00000     0.00314    -0.00000    -0.00000    -0.00747
  54      -0.00000    -0.00000    -0.00989    -0.00000    -0.00000     0.02139
  55       0.00013    -0.00010     0.00000     0.00002     0.00025     0.00000

           25          26          27          28          29          30  
       ----------- ----------- ----------- ----------- ----------- -----------
   1      -0.00000    -0.00000     0.00212     0.00005    -0.00088    -0.00000
   2      -0.00066     0.00043    -0.00000     0.00000     0.00000     0.40978
   3       0.00057    -0.00061    -0.00000    -0.00000    -0.00000    -0.03357
   4       0.00071    -0.00016     0.00000    -0.00000     0.00000    -0.11214
   5       0.00000     0.00000     0.00333     0.00008    -0.00138     0.00000
   6       0.00002     0.00002    -0.00000    -0.00000    -0.00000    -0.00341
   7      -0.00139     0.00198     0.00000    -0.00000     0.00000     0.65436
   8      -0.00080    -0.00014    -0.00000    -0.00000    -0.00000     1.43185
   9      -0.00282     0.00044    -0.00000     0.00000    -0.00000     1.07821
  10      -0.00000    -0.00000    -0.00622    -0.00015     0.00257     0.00000
  11      -1.43213    -1.69585     0.00000    -0.00000     0.00000     0.00265
  12       1.63373     0.01326    -0.00000     0.00000    -0.00000    -0.00043
  13       1.28400    -1.87139     0.00000     0.00000    -0.00000    -0.00957
  14       0.00000     0.00000    -0.00013    -0.00000     0.00005     0.00000
  15       0.00237     0.00103    -0.00000     0.00000    -0.00000     0.23130
  16      -0.00643    -0.00302    -0.00000    -0.00000    -0.00000     0.91798
  17       0.00291    -0.00360     0.00000    -0.00000     0.00000    -0.38637
  18      -0.00000    -0.00000    -3.13333     0.15837    -0.15884    -0.00000
  19      -0.00000    -0.00000     0.05040    -1.50809    -2.77262    -0.00000
  20       0.00000     0.00000    -0.21338    -2.75392     1.48961    -0.00000
  21       0.00000    -0.00001    -0.00000     0.00000     0.00000    -0.00844
  22      -0.00000    -0.00000     0.00431    -0.00172    -0.00213    -0.00000
  23      -0.00000     0.00000    -0.01010     0.00118     0.00260    -0.00000
  24       0.00031    -0.01627     0.00000    -0.00000     0.00000     0.01406
  25       4.34705     0.02468     0.00000     0.00000     0.00000    -0.01497
  26       0.02468     4.35199     0.00000     0.00000     0.00000     0.00201
  27       0.00000     0.00000     4.95156     0.00633     0.01638     0.00000
  28       0.00000     0.00000     0.00633     4.95858     0.02214    -0.00000
  29       0.00000     0.00000     0.01638     0.02214     4.97836     0.00000
  30      -0.01497     0.00201     0.00000    -0.00000     0.00000     4.43598
  31       0.00978    -0.00355    -0.00000     0.00000    -0.00000     0.00765
  32       0.00098     0.00978    -0.00000     0.00000    -0.00000    -0.01755
  33      -0.00658    -0.00613    -0.00000    -0.00000     0.00000    -0.00127
  34       0.00086     0.00214     0.00000    -0.00000     0.00000     0.05259
  35      -0.00681    -0.00815     0.00000    -0.00000     0.00000    -0.35872
  36      -0.00000     0.00000    -0.01665    -0.00041     0.00689    -0.00000
  37       0.00000    -0.00000    -0.02019     0.00125     0.00423     0.00000
  38      -0.00000     0.00000     0.01976    -0.00524    -0.00754     0.00000
  39       0.00000     0.00000     1.83720    -0.08000    -0.08801    -0.00000
  40      -0.00000    -0.00000    -0.09394    -1.83742    -0.17222     0.00000
  41      -0.00000    -0.00000    -0.09457     0.15445    -1.84479    -0.00000
  42      -0.00125    -0.00494    -0.00000    -0.00000     0.00000    -0.70794
  43       0.00013     0.00117     0.00000     0.00000    -0.00000    -0.02961
  44       0.00334     0.00155     0.00000    -0.00000    -0.00000     0.00053
  45       0.00000     0.00000    -0.00005     0.00138     0.00115    -0.00000
  46       0.00000     0.00000    -0.01347     0.00212     0.00397    -0.00000
  47       0.00000    -0.00000     0.00509     0.00013    -0.00210     0.00000
  48       0.00615    -0.01002    -0.00000    -0.00000     0.00000    -0.04796
  49      -0.00223     0.00148    -0.00000    -0.00000     0.00000     0.00724
  50       0.00807    -0.00320    -0.00000    -0.00000     0.00000     0.00511
  51      -0.00000    -0.00000    -0.03997    -0.00099     0.01654     0.00000
  52       0.01420    -0.00508    -0.00000    -0.00000     0.00000     0.04013
  53       0.01768    -0.02843    -0.00000    -0.00000     0.00000    -0.24052
  54      -0.01776     0.00695    -0.00000     0.00000     0.00000    -0.00946
  55       0.00000     0.00000     0.02528     0.00063    -0.01047     0.00000

           31          32          33          34          35          36  
       ----------- ----------- ----------- ----------- ----------- -----------
   1      -0.00000     0.00000     0.00000    -0.00000    -0.00000    -0.33890
   2       0.11927     0.01564     0.10623     0.30266    -0.73995     0.00000
   3       0.19573    -0.37256    -0.58972     0.52780     0.12196     0.00000
   4       0.36178     0.20225     0.53698     0.53018     0.29232    -0.00000
   5      -0.00000    -0.00000    -0.00000    -0.00000    -0.00000    -1.43538
   6      -0.01035    -0.00540     0.00141     0.00156    -0.00040     0.00000
   7      -0.31086     1.75736     0.79025    -0.32120    -0.33791     0.00000
   8       1.22726    -0.32207     0.01399     0.69999    -0.61314    -0.00000
   9      -1.43046    -0.66514    -0.48029    -0.51572    -0.60338    -0.00000
  10      -0.00000    -0.00000    -0.00000    -0.00000    -0.00000     0.84905
  11      -0.00120     0.00122     0.00830    -0.00551     0.00812     0.00000
  12       0.00396     0.00179     0.00087    -0.00122     0.00216    -0.00000
  13       0.00461    -0.00558    -0.00390     0.00574     0.00807    -0.00000
  14      -0.00000    -0.00000    -0.00000    -0.00000    -0.00000    -0.87736
  15       0.86887     0.48123    -1.66963    -1.78201     0.30322     0.00000
  16       0.01008    -0.46246     0.99210    -0.56559     2.15790    -0.00000
  17       0.53567    -0.77751     1.48817    -1.58626    -1.12150    -0.00000
  18       0.00000    -0.00000     0.00000    -0.00000    -0.00000     0.02653
  19      -0.00000     0.00000    -0.00000     0.00000    -0.00000    -0.01006
  20      -0.00000     0.00000    -0.00000     0.00000    -0.00000     0.00779
  21      -0.02563    -0.01339     0.01056     0.01194    -0.00282     0.00000
  22      -0.00000     0.00000    -0.00000    -0.00000    -0.00000    -0.00147
  23       0.00000    -0.00000     0.00000    -0.00000    -0.00000    -0.02025
  24       0.00453     0.00329     0.00301    -0.00750     0.00801    -0.00000
  25       0.00978     0.00098    -0.00658     0.00086    -0.00681    -0.00000
  26      -0.00355     0.00978    -0.00613     0.00214    -0.00815     0.00000
  27      -0.00000    -0.00000    -0.00000     0.00000     0.00000    -0.01665
  28       0.00000     0.00000    -0.00000    -0.00000    -0.00000    -0.00041
  29      -0.00000    -0.00000     0.00000     0.00000     0.00000     0.00689
  30       0.00765    -0.01755    -0.00127     0.05259    -0.35872    -0.00000
  31       4.44271     0.00805     0.09758     0.35022     0.04191     0.00000
  32       0.00805     4.43002     0.34827    -0.08920     0.00743     0.00000
  33       0.09758     0.34827     4.52043     0.02089     0.00440     0.00000
  34       0.35022    -0.08920     0.02089     4.53241    -0.00447     0.00000
  35       0.04191     0.00743     0.00440    -0.00447     4.52533     0.00000
  36       0.00000     0.00000     0.00000     0.00000     0.00000     1.16218
  37       0.00000     0.00000     0.00000    -0.00000     0.00000    -0.01190
  38      -0.00000     0.00000     0.00000    -0.00000     0.00000     0.00362
  39      -0.00000     0.00000     0.00000     0.00000     0.00000     0.00332
  40      -0.00000     0.00000    -0.00000     0.00000     0.00000    -0.00012
  41       0.00000     0.00000     0.00000     0.00000     0.00000     0.00120
  42       0.01847     0.03450     0.02879    -0.17203     1.65245     0.00000
  43      -0.68615    -0.19018    -0.84190    -1.43612    -0.13199    -0.00000
  44       0.18566    -0.67964    -1.42969     0.82364     0.09873    -0.00000
  45       0.00000    -0.00000    -0.00000     0.00000    -0.00000    -0.00110
  46       0.00000    -0.00000     0.00000     0.00000     0.00000     0.00217
  47      -0.00000    -0.00000    -0.00000    -0.00000    -0.00000     5.21500
  48       0.00742     0.00786     0.07393     0.01064     0.59870    -0.00000
  49       0.02242     0.04045     0.56415     0.21411    -0.08223    -0.00000
  50       0.03929    -0.03252    -0.19508     0.56651     0.02660     0.00000
  51      -0.00000    -0.00000    -0.00000    -0.00000    -0.00000     2.94019
  52       0.23137     0.00664     0.30157     0.84734    -0.02157    -0.00000
  53       0.02959     0.03510     0.05400     0.00977     0.88490    -0.00000
  54      -0.02628     0.25244     0.82700    -0.27212    -0.07455    -0.00000
  55      -0.00000    -0.00000    -0.00000    -0.00000    -0.00000    -0.70509

           37          38          39          40          41          42  
       ----------- ----------- ----------- ----------- ----------- -----------
   1       0.00151    -0.00046     0.00023    -0.00001     0.00008    -0.00000
   2      -0.00000     0.00000    -0.00000    -0.00000    -0.00000    -0.00316
   3      -0.00000     0.00000    -0.00000    -0.00000     0.00000    -0.00375
   4      -0.00000    -0.00000     0.00000     0.00000     0.00000     0.00131
   5       0.00238    -0.00073    -0.00092     0.00003    -0.00033    -0.00000
   6       0.00000     0.00000    -0.00000     0.00000    -0.00000    -0.00228
   7       0.00000     0.00000     0.00000     0.00000     0.00000    -0.04056
   8      -0.00000     0.00000    -0.00000     0.00000    -0.00000    -0.08337
[...]
   7       0.00070    -0.00394     0.00008     0.00000    -0.00000     0.00000
   8      -0.00233    -0.00019     0.00102    -0.00000    -0.00000    -0.00000
   9       0.00704     0.00159     0.00403    -0.00000    -0.00000    -0.00000
  10      -0.00154     0.00870    -0.00046    -0.00000     0.00000    -0.00000
  11       0.00515     0.00043    -0.00565     0.00000     0.00000     0.00000
  12       0.00197     0.00045     0.00301    -0.00000    -0.00000    -0.00000
  13      -0.00043     0.00243    -0.00034     0.00000     0.00000    -0.00000
  14       0.00144     0.00012    -0.00422     0.00000     0.00000     0.00000
  15      -0.00031    -0.00007    -0.00051     0.00000    -0.00000     0.00000
  16       0.00007    -0.00038     0.00006    -0.00000    -0.00000     0.00000
  17      -0.00022    -0.00002     0.00072    -0.00000    -0.00000    -0.00000
  18       0.00000    -0.00000    -0.00000    -0.24515     0.64620     0.93514
  19      -0.00000     0.00000    -0.00000     1.55204     0.67399    -0.42010
  20       0.00000     0.00000    -0.00000    -0.47575     0.86650    -0.61980
  21      -0.00000     0.00000     0.00000     0.45672    -0.92940     0.03568
  22       0.00000     0.00000     0.00000     1.03199     0.63159     0.36072
  23      -0.00000    -0.00000     0.00000    -0.21157     0.28320    -0.97082
  24      -0.00000     0.00000     0.00000     0.17099    -0.45073    -0.65146
  25       0.00000    -0.00000     0.00000    -1.08257    -0.47012     0.29266
  26       0.00000    -0.00000     0.00000     0.33184    -0.60440     0.43178
  27      -0.00000    -0.00000    -0.00000    -0.31857     0.64826    -0.02486
  28      -0.00000    -0.00000    -0.00000    -0.71983    -0.44054    -0.25129
  29       0.00000     0.00000    -0.00000     0.14757    -0.19753     0.67632
  30       0.00000    -0.00000    -0.00000    -0.06638     0.17499     0.25287
  31      -0.00000    -0.00000    -0.00000     0.42028     0.18251    -0.11360
  32      -0.00000     0.00000    -0.00000    -0.12883     0.23464    -0.16760
  33      -0.00000     0.00000     0.00000     0.12368    -0.25168     0.00965
  34       0.00000     0.00000     0.00000     0.27946     0.17103     0.09754
  35      -0.00000    -0.00000    -0.00000    -0.05729     0.07669    -0.26251
  36      -0.41084    -0.09302    -0.47497     0.00000     0.00000     0.00000
  37       0.32106    -0.45530    -0.08317     0.00000     0.00000    -0.00000
  38       2.54080     0.61798    -1.02321    -0.00000    -0.00000    -0.00000
  39       0.53806     0.41873    -1.05360    -0.00000     0.00000     0.00000
  40      -0.77800     3.45121     0.57813    -0.00000     0.00000    -0.00000
  41       0.68464    -0.14191     2.47838    -0.00000     0.00000    -0.00000
  42      -0.12898     0.72726     0.12196    -0.00000    -0.00000     0.00000
  43       0.50093    -0.36462     1.47808     0.00000     0.00000    -0.00000
  44       0.06804    -1.73864    -0.28270     0.00000    -0.00000     0.00000
  45      -1.01630    -0.08465    -0.15156    -0.00000     0.00000     0.00000
  46       0.20385     0.04615     0.23680     0.00000     0.00000     0.00000
  47      -0.16156     0.22540     0.04242    -0.00000    -0.00000     0.00000
  48      -1.28842    -0.31290     0.52182     0.00000     0.00000     0.00000
  49      -0.27623    -0.21276     0.52927     0.00000     0.00000     0.00000
  50       0.39362    -1.74611    -0.29223     0.00000    -0.00000     0.00000
  51      -0.35039     0.07089    -1.25604     0.00000    -0.00000     0.00000
  52       0.06614    -0.37291    -0.06127     0.00000    -0.00000     0.00000
  53      -0.25637     0.18423    -0.74251    -0.00000    -0.00000    -0.00000
  54      -0.03355     0.87469     0.14327    -0.00000    -0.00000     0.00000
  55       0.51126     0.04258     0.08122    -0.00000    -0.00000    -0.00000

           49          50          51          52          53          54  
       ----------- ----------- ----------- ----------- ----------- -----------
   1       0.00000    -0.01716     5.66668    -0.00000    -0.00000    -0.00000
   2       0.00000    -0.03521    10.51839    -0.00000    -0.00000    -0.00000
   3      -0.00000     0.01932    -5.37264     0.00000    -0.00000     0.00000
   4       0.00000    -0.05044     9.87452     0.00000     0.00000    -0.00000
   5       0.00000    -0.00014     0.13410     0.00000     0.00000    -0.00000
   6       0.00000     0.00000    -0.00000    -2.59478    -0.00842     1.84207
   7      -0.00000    -0.00000    -0.00000    -0.13912    -3.17300    -0.21014
   8      -0.00000    -0.00000    -0.00000    -1.83827     0.25201    -2.58423
   9      -0.00000     0.00000     0.00000    14.34108     0.04653   -10.18715
  10       0.00000     0.00000     0.00000     0.76889    17.53682     1.16212
  11       0.00000     0.00000     0.00000    10.15995    -1.39284    14.29152
  12      -0.00000     0.00000     0.00000     2.15112     0.00698    -1.52760
  13      -0.00000     0.00000     0.00000     0.11533     2.63048     0.17426
  14       0.00000     0.00000     0.00000     1.52397    -0.20892     2.14307
  15       0.00000    -0.00000    -0.00000    -0.31394    -0.00102     0.22297
  16      -0.00000    -0.00000    -0.00000    -0.01683    -0.38390    -0.02544
  17      -0.00000    -0.00000    -0.00000    -0.22241     0.03049    -0.31280
  18      -0.30038     0.00146    -2.01318    -0.00000     0.00000     0.00000
  19      -1.12630     0.13783     0.00039    -0.00000     0.00000     0.00000
  20       0.30160     1.69557     0.00481    -0.00000    -0.00000     0.00000
  21       0.13241     0.59786    -2.01149    -0.00000     0.00000     0.00000
  22       1.64188    -0.19339    -0.00055     0.00000    -0.00000    -0.00000
  23       0.16797    -0.58362    -2.01484    -0.00000     0.00000     0.00000
  24       0.20926     0.02675    -5.21633    -0.00000    -0.00000     0.00000
  25       0.78464    -0.09579    -0.00027     0.00000    -0.00000    -0.00000
  26      -0.21011    -1.17849    -0.00326     0.00000     0.00000    -0.00000
  27      -0.09224    -0.38776    -5.21748    -0.00000    -0.00000     0.00000
  28      -1.14381     0.13442     0.00037    -0.00000     0.00000     0.00000
  29      -0.11702     0.43341    -5.21521    -0.00000    -0.00000     0.00000
  30      -0.08122     0.00483    -1.19794    -0.00000    -0.00000     0.00000
  31      -0.30456     0.03716     0.00012     0.00000     0.00000     0.00000
  32       0.08155     0.45716     0.00144    -0.00000    -0.00000    -0.00000
  33       0.03580     0.16562    -1.19743    -0.00000    -0.00000     0.00000
  34       0.44397    -0.05214    -0.00016     0.00000    -0.00000    -0.00000
  35       0.04542    -0.15292    -1.19844    -0.00000    -0.00000     0.00000
  36       0.00000    -0.00000    -0.00000    -6.58990    -0.02138     4.68178
  37      -0.00000     0.00000    -0.00000    -0.35336    -8.05839    -0.53407
  38      -0.00000    -0.00000    -0.00000    -4.66923     0.64003    -6.56785
  39      -0.00000    -0.00000    -0.00000    -6.59012    -0.02144     4.68185
  40      -0.00000    -0.00000     0.00000     0.00000    -0.00073    -0.00007
  41      -0.00000     0.00000    -0.00000    -6.59012    -0.02132     4.68143
  42      -0.00000    -0.00000    -0.00000    -0.35333    -8.05865    -0.53409
  43      -0.00000     0.00000    -0.00000    -4.66877     0.64013    -6.56816
  44       0.00000    -0.00000    -0.00000    -0.35326    -8.05814    -0.53404
  45       0.00000    -0.00000    -0.00000    -4.66848     0.64001    -6.56796
  46       0.00000    -0.00000    -0.00000    -3.89087    -0.01262     2.76340
  47      -0.00000    -0.00000    -0.00000    -0.20861    -4.75791    -0.31522
  48       0.00000    -0.00000    -0.00000    -2.75658     0.37789    -3.87653
  49       0.00000     0.00000    -0.00000    -3.89090    -0.01263     2.76348
  50       0.00000     0.00000     0.00000     0.00000    -0.00010    -0.00008
  51       0.00000    -0.00000    -0.00000    -3.89090    -0.01262     2.76300
  52       0.00000    -0.00000    -0.00000    -0.20861    -4.75794    -0.31525
  53       0.00000    -0.00000    -0.00000    -2.75651     0.37791    -3.87687
  54      -0.00000    -0.00000    -0.00000    -0.20860    -4.75788    -0.31519
  55      -0.00000    -0.00000    -0.00000    -2.75647     0.37789    -3.87665

           55  
       -----------
   1       2.56673
   2       7.84116
   3       0.09540
   4       8.94592
   5       0.59095
   6       0.00000
   7      -0.00000
   8       0.00000
   9      -0.00000
  10       0.00000
  11      -0.00000
  12      -0.00000
  13      -0.00000
  14      -0.00000
  15       0.00000
  16       0.00000
  17       0.00000
  18      -3.38706
  19      -0.00006
  20      -0.00079
  21      -3.38733
  22       0.00009
  23      -3.38678
  24      -4.06069
  25       0.00004
  26       0.00046
  27      -4.06052
  28      -0.00005
  29      -4.06085
  30      -1.44124
  31      -0.00001
  32      -0.00016
  33      -1.44129
  34       0.00002
  35      -1.44118
  36       0.00000
  37      -0.00000
  38       0.00000
  39       0.00000
  40      -0.00000
  41       0.00000
  42      -0.00000
  43       0.00000
  44      -0.00000
  45       0.00000
  46       0.00000
  47      -0.00000
  48       0.00000
  49       0.00000
  50       0.00000
  51       0.00000
  52      -0.00000
  53       0.00000
  54      -0.00000
  55       0.00000
  int_init: cando_txs set to always be  F
                                NWChem TDDFT Module
                                -------------------


            General Information
            -------------------
           No. of orbitals :     110
            Alpha orbitals :      55
             Beta orbitals :      55
        Alpha frozen cores :       0
         Beta frozen cores :       0
     Alpha frozen virtuals :       0
      Beta frozen virtuals :       0
         Spin multiplicity :       2
    Number of AO functions :      55
        Use of symmetry is : off
      Symmetry adaption is : off
         Schwarz screening :  0.10D-07

              XC Information
              --------------
              Hartree-Fock (Exact) Exchange   1.00          
              LC-wPBE(h)Exchange Functional   1.00          
     Perdew 1991 LDA Correlation Functional   1.00 local    
    PerdewBurkeErnz. Correlation Functional   1.00 non-local
           Alpha           :  0.00
           Beta            :  1.00
           Gamma           :  0.40

             TDDFT Information
             -----------------
          Calculation type : TDDFT             
         Wavefunction type : Unrestricted
          No. of electrons :       9
           Alpha electrons :       5
            Beta electrons :       4
              No. of roots :       5
          Max subspacesize :    5000
            Max iterations :     100
               Target root :       1
           Target symmetry : none
      Symmetry restriction : off
                 Algorithm : Optimal
        Davidson threshold :  0.10D-03

            Memory Information
            ------------------
          Available GA space size is       52428793950 doubles
          Available MA space size is        4194413092 doubles
          Length of a trial vector is          250     204
          Algorithm : Incore multiple tensor contraction
          Estimated peak GA usage is           9592740 doubles
          Estimated peak MA usage is             18000 doubles

    5 smallest eigenvalue differences (eV) 
--------------------------------------------------------
  No. Spin  Occ  Vir  Irrep   E(Occ)    E(Vir)   E(Diff)
--------------------------------------------------------
    1    2    4    5 a        -0.572    -0.156    11.308
    2    2    3    5 a        -0.572    -0.156    11.308
    3    2    4    6 a        -0.572     0.153    19.709
    4    2    3    6 a        -0.572     0.153    19.709
    5    1    5    6 a        -0.601     0.148    20.389
--------------------------------------------------------

  Entering Davidson iterations
  Unrestricted

  Iter   NTrls   NConv    DeltaV     DeltaE      Time   
  ----  ------  ------  ---------  ---------  --------- 
    1      5       0     0.25E+00   0.10+100        2.1
    2     15       0     0.88E-01   0.19E-01        3.4
    3     25       0     0.36E-01   0.20E-02        3.5
 ------------------------------------------------------------------------
 tddft_diagon: negative excitation energy                   0
 ------------------------------------------------------------------------
 ------------------------------------------------------------------------
  current input line : 
 tddft_diagon: negative excitation energy                   0
 ------------------------------------------------------------------------
 ------------------------------------------------------------------------
  current input line : 
     0: 
 ------------------------------------------------------------------------
 ------------------------------------------------------------------------
 This type of error is most commonly associated with calculations not reaching convergence criteria
 ------------------------------------------------------------------------
 For more information see the NWChem manual at https://nwchemgit.github.io


 For further details see manual section:                                                                                                                                                                                                                                                                
 tddft_diagon: negative excitation energy                   0
 ------------------------------------------------------------------------
 ------------------------------------------------------------------------
  current input line : 
     0: 
 ------------------------------------------------------------------------
 ------------------------------------------------------------------------
 This type of error is most commonly associated with calculations not reaching convergence criteria
 ------------------------------------------------------------------------
 For more information see the NWChem manual at https://nwchemgit.github.io


 For further details see manual section:                                                                                                                                                                                                                                                                
 tddft_diagon: negative excitation energy                   0
 ------------------------------------------------------------------------
 ------------------------------------------------------------------------
  current input line : 
     0: 
 ------------------------------------------------------------------------
 ------------------------------------------------------------------------
 This type of error is most commonly associated with calculations not reaching convergence criteria
 ------------------------------------------------------------------------
 For more information see the NWChem manual at https://nwchemgit.github.io


 For further details see manual section:                                                                                                                                                                                                                                                                
 tddft_diagon: negative excitation energy                   0
 ------------------------------------------------------------------------
 ------------------------------------------------------------------------
  current input line : 
     0: 
 ------------------------------------------------------------------------
 ------------------------------------------------------------------------
 This type of error is most commonly associated with calculations not reaching convergence criteria
 ------------------------------------------------------------------------
 For more information see the NWChem manual at https://nwchemgit.github.io


 For further details see manual section:                                                                                                                                                                                                                                                                
 tddft_diagon: negative excitation energy                   0
 ------------------------------------------------------------------------
 ------------------------------------------------------------------------
  current input line : 
     0: 
 ------------------------------------------------------------------------
 ------------------------------------------------------------------------
 This type of error is most commonly associated with calculations not reaching convergence criteria
 ------------------------------------------------------------------------
 For more information see the NWChem manual at https://nwchemgit.github.io


 For further details see manual section:                                                                                                                                                                                                                                                                
 tddft_diagon: negative excitation energy                   0
 ------------------------------------------------------------------------
 ------------------------------------------------------------------------
  current input line : 
     0: 
 ------------------------------------------------------------------------
 ------------------------------------------------------------------------
 This type of error is most commonly associated with calculations not reaching convergence criteria
 ------------------------------------------------------------------------
 For more information see the NWChem manual at https://nwchemgit.github.io


 For further details see manual section:                                                                                                                                                                                                                                                                
 tddft_diagon: negative excitation energy                   0
 ------------------------------------------------------------------------
 ------------------------------------------------------------------------
  current input line : 
     0: 
 ------------------------------------------------------------------------
 ------------------------------------------------------------------------
 This type of error is most commonly associated with calculations not reaching convergence criteria
 ------------------------------------------------------------------------
 For more information see the NWChem manual at https://nwchemgit.github.io


 For further details see manual section:                                                                                                                                                                                                                                                                
    23:  task tddft energy
 ------------------------------------------------------------------------
 ------------------------------------------------------------------------
 This type of error is most commonly associated with calculations not reaching convergence criteria
 ------------------------------------------------------------------------
 For more information see the NWChem manual at https://nwchemgit.github.io


 For further details see manual section:                                                                                                                                                                                                                                                                
