 argument  1 = /home/aditisingh4812/nw_chem/nwchem-run/nwchem-run/tddft/open/open_atom/geom-MOL-0.4/ge.nw
                                         
                                         


             Northwest Computational Chemistry Package (NWChem) 7.2.3
             --------------------------------------------------------


                    Environmental Molecular Sciences Laboratory
                       Pacific Northwest National Laboratory
                                Richland, WA 99352

                              Copyright (c) 1994-2022
                       Pacific Northwest National Laboratory
                            Battelle Memorial Institute

             NWChem is an open-source computational chemistry package
                        distributed under the terms of the
                      Educational Community License (ECL) 2.0
             A copy of the license is included with this distribution
                              in the LICENSE.TXT file

                                  ACKNOWLEDGMENT
                                  --------------

            This software and its documentation were developed at the
            EMSL at Pacific Northwest National Laboratory, a multiprogram
            national laboratory, operated for the U.S. Department of Energy
            by Battelle under Contract Number DE-AC05-76RL01830. Support
            for this work was provided by the Department of Energy Office
            of Biological and Environmental Research, Office of Basic
            Energy Sciences, and the Office of Advanced Scientific Computing.


           Job information
           ---------------

    hostname        = p17
    program         = /home/aditisingh4812/nw_chem/nwchem-7.2.3-release.revision-d690e065-srconly.2024-08-27/nwchem-7.2.3/bin/LINUX64/nwchem
    date            = Thu Apr 24 11:16:17 2025

    compiled        = Mon_Apr_07_18:51:54_2025
    source          = /home/aditisingh4812/nw_chem/nwchem-7.2.3-release.revision-d690e065-srconly.2024-08-27/nwchem-7.2.3
    nwchem branch   = 7.2.3
    nwchem revision = d690e065
    ga revision     = 5.8.0
    use scalapack   = F
    input           = /home/aditisingh4812/nw_chem/nwchem-run/nwchem-run/tddft/open/open_atom/geom-MOL-0.4/ge.nw
    prefix          = ge.
    data base       = ./ge.db
    status          = startup
    nproc           =        8
    time left       =     -1s



           Memory information
           ------------------

    heap     = 2621440000 doubles =  20000.0 Mbytes
    stack    = 2621439997 doubles =  20000.0 Mbytes
    global   = 6553600000 doubles =  50000.0 Mbytes (distinct from heap & stack)
    total    = ********** doubles =  90000.0 Mbytes
    verify   = yes
    hardfail = no 


           Directory information
           ---------------------

  0 permanent = .
  0 scratch   = .




                                NWChem Input Module
                                -------------------



 Scaling coordinates for geometry "geometry" by  1.889725989
 (inverse scale =  0.529177249)



                             Geometry "geometry" -> ""
                             -------------------------

 Output coordinates in angstroms (scale by  1.889725989 to convert to a.u.)

  No.       Tag          Charge          X              Y              Z
 ---- ---------------- ---------- -------------- -------------- --------------
    1 Ge                  32.0000     0.00000000     0.00000000     0.00000000

      Atomic Mass 
      ----------- 

      Ge                73.921900


 Effective nuclear repulsion energy (a.u.)       0.0000000000

            Nuclear Dipole moment (a.u.) 
            ----------------------------
        X                 Y               Z
 ---------------- ---------------- ----------------
     0.0000000000     0.0000000000     0.0000000000


            XYZ format geometry
            -------------------
     1
 geometry
 Ge                    0.00000000     0.00000000     0.00000000



 Summary of "ao basis" -> "" (cartesian)
 ------------------------------------------------------------------------------
       Tag                 Description            Shells   Functions and Types
 ---------------- ------------------------------  ------  ---------------------
 *                        aug-cc-pVTZ                 on all atoms 


  pbe96 is a nonlocal functional; adding pw91lda local functional. 

                                 NWChem DFT Module
                                 -----------------


                      Basis "ao basis" -> "ao basis" (cartesian)
                      -----
  Ge (Germanium)
  --------------
            Exponent  Coefficients 
       -------------- ---------------------------------------------------------
  1 S  7.44796680E+06  0.000007
  1 S  1.11531820E+06  0.000057
  1 S  2.53842650E+05  0.000302
  1 S  7.19152850E+04  0.001273
  1 S  2.34701810E+04  0.004612
  1 S  8.47749180E+03  0.014821
  1 S  3.30839080E+03  0.042554
  1 S  1.37260540E+03  0.107306
  1 S  5.98220070E+02  0.224518
  1 S  2.71386020E+02  0.345313
  1 S  1.26977950E+02  0.304526
  1 S  6.02220650E+01  0.099067
  1 S  2.80185820E+01  0.004132
  1 S  1.35175220E+01  0.001035
  1 S  6.30940600E+00 -0.000486
  1 S  2.90453400E+00  0.000181
  1 S  1.28755600E+00 -0.000091
  1 S  1.67732000E-01 -0.000027

  2 S  7.44796680E+06 -0.000002
  2 S  1.11531820E+06 -0.000018
  2 S  2.53842650E+05 -0.000094
  2 S  7.19152850E+04 -0.000396
  2 S  2.34701810E+04 -0.001443
  2 S  8.47749180E+03 -0.004668
  2 S  3.30839080E+03 -0.013715
  2 S  1.37260540E+03 -0.036180
  2 S  5.98220070E+02 -0.084168
  2 S  2.71386020E+02 -0.158877
  2 S  1.26977950E+02 -0.203381
  2 S  6.02220650E+01 -0.025141
  2 S  2.80185820E+01  0.457515
  2 S  1.35175220E+01  0.557194
  2 S  6.30940600E+00  0.139706
  2 S  2.90453400E+00  0.002265
  2 S  1.28755600E+00  0.002093
  2 S  1.67732000E-01  0.000328

  3 S  7.44796680E+06  0.000001
  3 S  1.11531820E+06  0.000007
  3 S  2.53842650E+05  0.000036
  3 S  7.19152850E+04  0.000153
  3 S  2.34701810E+04  0.000556
  3 S  8.47749180E+03  0.001802
  3 S  3.30839080E+03  0.005309
  3 S  1.37260540E+03  0.014088
  3 S  5.98220070E+02  0.033201
  3 S  2.71386020E+02  0.064462
  3 S  1.26977950E+02  0.086954
  3 S  6.02220650E+01  0.011875
  3 S  2.80185820E+01 -0.272453
  3 S  1.35175220E+01 -0.500145
  3 S  6.30940600E+00  0.010855
  3 S  2.90453400E+00  0.721647
  3 S  1.28755600E+00  0.480521
  3 S  1.67732000E-01 -0.010230

  4 S  7.44796680E+06 -0.000000
  4 S  1.11531820E+06 -0.000002
  4 S  2.53842650E+05 -0.000009
  4 S  7.19152850E+04 -0.000039
  4 S  2.34701810E+04 -0.000143
  4 S  8.47749180E+03 -0.000462
  4 S  3.30839080E+03 -0.001361
  4 S  1.37260540E+03 -0.003618
  4 S  5.98220070E+02 -0.008536
  4 S  2.71386020E+02 -0.016651
  4 S  1.26977950E+02 -0.022591
  4 S  6.02220650E+01 -0.003215
  4 S  2.80185820E+01  0.074500
  4 S  1.35175220E+01  0.144033
  4 S  6.30940600E+00 -0.008082
  4 S  2.90453400E+00 -0.270416
  4 S  1.28755600E+00 -0.340161
  4 S  1.67732000E-01  0.619066

  5 S  3.36552000E-01  1.000000

  6 S  7.10690000E-02  1.000000

  7 S  2.73700000E-02  1.000000

  8 P  6.97959820E+03  0.000457
  8 P  1.65416480E+03  0.003956
  8 P  5.36028650E+02  0.021314
  8 P  2.03537130E+02  0.081872
  8 P  8.52375300E+01  0.222373
  8 P  3.78419620E+01  0.390566
  8 P  1.74065120E+01  0.356042
  8 P  7.88149200E+00  0.107031
  8 P  3.53321300E+00  0.003694
  8 P  1.52147300E+00  0.001922
  8 P  1.99093000E-01  0.000192

  9 P  6.97959820E+03 -0.000176
  9 P  1.65416480E+03 -0.001531
  9 P  5.36028650E+02 -0.008315
  9 P  2.03537130E+02 -0.032872
  9 P  8.52375300E+01 -0.093166
  9 P  3.78419620E+01 -0.175554
  9 P  1.74065120E+01 -0.146791
  9 P  7.88149200E+00  0.186293
  9 P  3.53321300E+00  0.526486
  9 P  1.52147300E+00  0.397086
  9 P  1.99093000E-01 -0.003348

 10 P  6.97959820E+03  0.000035
 10 P  1.65416480E+03  0.000301
 10 P  5.36028650E+02  0.001649
 10 P  2.03537130E+02  0.006498
 10 P  8.52375300E+01  0.018638
 10 P  3.78419620E+01  0.035061
 10 P  1.74065120E+01  0.029589
 10 P  7.88149200E+00 -0.047246
 10 P  3.53321300E+00 -0.124985
 10 P  1.52147300E+00 -0.121080
 10 P  1.99093000E-01  0.575473

 11 P  5.62704000E-01  1.000000

 12 P  6.70310000E-02  1.000000

 13 P  2.13680000E-02  1.000000

 14 D  2.82239110E+02  0.001828
 14 D  8.45499570E+01  0.015155
 14 D  3.20736560E+01  0.066046
 14 D  1.34974950E+01  0.183947
 14 D  5.95855000E+00  0.322787
 14 D  2.61078800E+00  0.372946
 14 D  1.10398700E+00  0.275173

 15 D  4.24049000E-01  1.000000

 16 D  1.52000000E-01  1.000000

 17 D  5.28000000E-02  1.000000

 18 F  3.45800000E-01  1.000000

 19 F  1.32300000E-01  1.000000



 Summary of "ao basis" -> "ao basis" (cartesian)
 ------------------------------------------------------------------------------
       Tag                 Description            Shells   Functions and Types
 ---------------- ------------------------------  ------  ---------------------
 Ge                       aug-cc-pVTZ               19       69   7s6p4d2f




 Summary of "ao basis" -> "ao basis" (cartesian)
 ------------------------------------------------------------------------------
       Tag                 Description            Shells   Functions and Types
 ---------------- ------------------------------  ------  ---------------------
 Ge                       aug-cc-pVTZ               19       69   7s6p4d2f




                         Geometry "geometry" -> "geometry"
                         ---------------------------------

 Output coordinates in angstroms (scale by  1.889725989 to convert to a.u.)

  No.       Tag          Charge          X              Y              Z
 ---- ---------------- ---------- -------------- -------------- --------------
    1 Ge                  32.0000     0.00000000     0.00000000     0.00000000

      Atomic Mass 
      ----------- 

      Ge                73.921900


 Effective nuclear repulsion energy (a.u.)       0.0000000000

            Nuclear Dipole moment (a.u.) 
            ----------------------------
        X                 Y               Z
 ---------------- ---------------- ----------------
     0.0000000000     0.0000000000     0.0000000000


                      Basis "ao basis" -> "ao basis" (cartesian)
                      -----
  Ge (Germanium)
  --------------
            Exponent  Coefficients 
       -------------- ---------------------------------------------------------
  1 S  7.44796680E+06  0.751918
  1 S  1.11531820E+06  1.404014
  1 S  2.53842650E+05  2.433308
  1 S  7.19152850E+04  3.985264
  1 S  2.34701810E+04  6.233262
  1 S  8.47749180E+03  9.332549
  1 S  3.30839080E+03 13.229987
  1 S  1.37260540E+03 17.246134
  1 S  5.98220070E+02 19.355617
  1 S  2.71386020E+02 16.455616
  1 S  1.26977950E+02  8.209775
  1 S  6.02220650E+01  1.526357
  1 S  2.80185820E+01  0.035861
  1 S  1.35175220E+01  0.005199
  1 S  6.30940600E+00 -0.001378
  1 S  2.90453400E+00  0.000286
  1 S  1.28755600E+00 -0.000079
  1 S  1.67732000E-01 -0.000005

  2 S  7.44796680E+06 -0.233684
  2 S  1.11531820E+06 -0.437799
  2 S  2.53842650E+05 -0.757572
  2 S  7.19152850E+04 -1.240572
  2 S  2.34701810E+04 -1.949286
  2 S  8.47749180E+03 -2.938714
  2 S  3.30839080E+03 -4.263736
  2 S  1.37260540E+03 -5.814289
  2 S  5.98220070E+02 -7.255454
  2 S  2.71386020E+02 -7.570476
  2 S  1.26977950E+02 -5.482497
  2 S  6.02220650E+01 -0.387322
  2 S  2.80185820E+01  3.970658
  2 S  1.35175220E+01  2.799314
  2 S  6.30940600E+00  0.396349
  2 S  2.90453400E+00  0.003590
  2 S  1.28755600E+00  0.001803
  2 S  1.67732000E-01  0.000061

  3 S  7.44796680E+06  0.093050
  3 S  1.11531820E+06  0.171729
  3 S  2.53842650E+05  0.296878
  3 S  7.19152850E+04  0.486615
  3 S  2.34701810E+04  0.764967
  3 S  8.47749180E+03  1.154393
  3 S  3.30839080E+03  1.679310
  3 S  1.37260540E+03  2.303806
  3 S  5.98220070E+02  2.912375
  3 S  2.71386020E+02  3.125658
  3 S  1.26977950E+02  2.385241
  3 S  6.02220650E+01  0.186157
  3 S  2.80185820E+01 -2.406153
  3 S  1.35175220E+01 -2.556910
  3 S  6.30940600E+00  0.031339
  3 S  2.90453400E+00  1.164337
  3 S  1.28755600E+00  0.421195
  3 S  1.67732000E-01 -0.001944

  4 S  7.44796680E+06 -0.033697
  4 S  1.11531820E+06 -0.073005
  4 S  2.53842650E+05 -0.124290
  4 S  7.19152850E+04 -0.203437
  4 S  2.34701810E+04 -0.319547
  4 S  8.47749180E+03 -0.482464
  4 S  3.30839080E+03 -0.701821
  4 S  1.37260540E+03 -0.964042
  4 S  5.98220070E+02 -1.220178
  4 S  2.71386020E+02 -1.315675
  4 S  1.26977950E+02 -1.009861
  4 S  6.02220650E+01 -0.082127
  4 S  2.80185820E+01  1.072180
  4 S  1.35175220E+01  1.199952
  4 S  6.30940600E+00 -0.038020
  4 S  2.90453400E+00 -0.710998
  4 S  1.28755600E+00 -0.485889
  4 S  1.67732000E-01  0.191746

  5 S  3.36552000E-01  0.314919

  6 S  7.10690000E-02  0.098100

  7 S  2.73700000E-02  0.047959

  8 P  6.97959820E+03 41.546851
  8 P  1.65416480E+03 59.488173
  8 P  5.36028650E+02 78.358300
  8 P  2.03537130E+02 89.715242
  8 P  8.52375300E+01 82.091831
  8 P  3.78419620E+01 52.250482
  8 P  1.74065120E+01 18.043436
  8 P  7.88149200E+00  2.014651
  8 P  3.53321300E+00  0.025506
  8 P  1.52147300E+00  0.004629
  8 P  1.99093000E-01  0.000036

  9 P  6.97959820E+03-16.491023
  9 P  1.65416480E+03-23.767958
  9 P  5.36028650E+02-31.568664
  9 P  2.03537130E+02-37.201728
  9 P  8.52375300E+01-35.520703
  9 P  3.78419620E+01-24.255674
  9 P  1.74065120E+01 -7.682893
  9 P  7.88149200E+00  3.621538
  9 P  3.53321300E+00  3.754346
  9 P  1.52147300E+00  0.987756
  9 P  1.99093000E-01 -0.000655

 10 P  6.97959820E+03  5.512996
 10 P  1.65416480E+03  7.895636
 10 P  5.36028650E+02 10.559590
 10 P  2.03537130E+02 12.405608
 10 P  8.52375300E+01 11.987132
 10 P  3.78419620E+01  8.171758
 10 P  1.74065120E+01  2.612422
 10 P  7.88149200E+00 -1.549331
 10 P  3.53321300E+00 -1.503452
 10 P  1.52147300E+00 -0.508070
 10 P  1.99093000E-01  0.190049

 11 P  5.62704000E-01  0.694688

 12 P  6.70310000E-02  0.048617

 13 P  2.13680000E-02  0.011645

 14 D  2.82239110E+02 60.459723
 14 D  8.45499570E+01 60.816122
 14 D  3.20736560E+01 48.599860
 14 D  1.34974950E+01 29.762160
 14 D  5.95855000E+00 12.486508
 14 D  2.61078800E+00  3.404277
 14 D  1.10398700E+00  0.556957

 15 D  4.24049000E-01  0.366765

 16 D  1.52000000E-01  0.060903

 17 D  5.28000000E-02  0.009572

 18 F  3.45800000E-01  0.134993

 19 F  1.32300000E-01  0.015540



    Basis function labels
    ---------------------
       No.  Atm El Type
       ---  --- -- ----
        1    1 Ge s          
        2    1 Ge s          
        3    1 Ge s          
        4    1 Ge s          
        5    1 Ge s          
        6    1 Ge s          
        7    1 Ge s          
        8    1 Ge px         
        9    1 Ge py         
       10    1 Ge pz         
       11    1 Ge px         
       12    1 Ge py         
       13    1 Ge pz         
       14    1 Ge px         
       15    1 Ge py         
       16    1 Ge pz         
       17    1 Ge px         
       18    1 Ge py         
       19    1 Ge pz         
       20    1 Ge px         
       21    1 Ge py         
       22    1 Ge pz         
       23    1 Ge px         
       24    1 Ge py         
       25    1 Ge pz         
       26    1 Ge dxx        
       27    1 Ge dxy        
       28    1 Ge dxz        
       29    1 Ge dyy        
       30    1 Ge dyz        
       31    1 Ge dzz        
       32    1 Ge dxx        
       33    1 Ge dxy        
       34    1 Ge dxz        
       35    1 Ge dyy        
       36    1 Ge dyz        
       37    1 Ge dzz        
       38    1 Ge dxx        
       39    1 Ge dxy        
       40    1 Ge dxz        
       41    1 Ge dyy        
       42    1 Ge dyz        
       43    1 Ge dzz        
       44    1 Ge dxx        
       45    1 Ge dxy        
       46    1 Ge dxz        
       47    1 Ge dyy        
       48    1 Ge dyz        
       49    1 Ge dzz        
       50    1 Ge fxxx       
       51    1 Ge fxxy       
       52    1 Ge fxxz       
       53    1 Ge fxyy       
       54    1 Ge fxyz       
       55    1 Ge fxzz       
       56    1 Ge fyyy       
       57    1 Ge fyyz       
       58    1 Ge fyzz       
       59    1 Ge fzzz       
       60    1 Ge fxxx       
       61    1 Ge fxxy       
       62    1 Ge fxxz       
       63    1 Ge fxyy       
       64    1 Ge fxyz       
       65    1 Ge fxzz       
       66    1 Ge fyyy       
       67    1 Ge fyyz       
       68    1 Ge fyzz       
       69    1 Ge fzzz       
  int_init: cando_txs set to always be  F

 Schwarz integral screening summary 
 ---------------------------------- 

        No. of atom pairs =       1
       No. of shell pairs =     190

 Atomic screening 

   value      no.     value      no.     value      no.     value      no.   
  -------- ------    -------- ------    -------- ------    -------- ------   
  0.00D+00      0    1.00D-13      0    1.00D-12      0    1.00D-11      0
  1.00D-10      0    1.00D-09      0    1.00D-08      0    1.00D-07      0
  1.00D-06      0    1.00D-05      0    1.00D-04      0    1.00D-03      0
  1.00D-02      0    1.00D-01      0    1.00D+00      0    1.00D+01      1


 Shell screening 

   value      no.     value      no.     value      no.     value      no.   
  -------- ------    -------- ------    -------- ------    -------- ------   
  0.00D+00      0    1.00D-13      0    1.00D-12      0    1.00D-11      0
  1.00D-10      0    1.00D-09      0    1.00D-08      0    1.00D-07      0
  1.00D-06      0    1.00D-05      3    1.00D-04      3    1.00D-03      9
  1.00D-02     19    1.00D-01     72    1.00D+00     82    1.00D+01      2


  Caching 1-el integrals 
  atom                     1  - neighbor  & S                     1   10.000000000000000       exp AB    2.1368000000000015E-002   2.1368000000000015E-002
 zmins =     0.021368000    0.021368000 lprod =   2 range =        23.85 acc   0.10D-07
 sh     0.000000000
  Center:                     1  Radial Pts. & Wghts. 
    1        0.000001439           8.9478505E-18
    2        0.000011516           2.2906574E-15
    3        0.000038865           5.8707578E-14
    4        0.000092126           5.8642403E-13
    5        0.000179935           3.4954618E-12
    6        0.000310931           1.5030501E-11
    7        0.000493754           5.1591033E-11
    8        0.000737048           1.5015679E-10
    9        0.001049457           3.8531004E-10
   10        0.001439631           8.9521358E-10
   11        0.001916225           1.9192743E-09
   12        0.002487899           3.8505981E-09
   13        0.003163323           7.3067240E-09
   14        0.003951173           1.3222515E-08
   15        0.004860137           2.2969486E-08
   16        0.005898916           3.8506253E-08
   17        0.007076225           6.2565221E-08
   18        0.008400792           9.8881068E-08
   19        0.009881367           1.5246704E-07
   20        0.011526718           2.2994554E-07
   21        0.013345636           3.3994005E-07
   22        0.015346939           4.9353588E-07
   23        0.017539469           7.0481789E-07
   24        0.019932102           9.9149385E-07
   25        0.022533746           1.3756128E-06
   26        0.025353345           1.8843887E-06
   27        0.028399883           2.5511391E-06
   28        0.031682388           3.4163527E-06
   29        0.035209934           4.5288949E-06
   30        0.038991643           5.9473681E-06
   31        0.043036694           7.7416382E-06
   32        0.047354323           9.9945452E-06
   33        0.051953828           1.2803813E-05
   34        0.056844572           1.6284175E-05
   35        0.062035992           2.0569739E-05
   36        0.067537598           2.5816608E-05
   37        0.073358982           3.2205783E-05
   38        0.079509822           3.9946364E-05
   39        0.085999886           4.9279087E-05
   40        0.092839038           6.0480221E-05
   41        0.100037246           7.3865848E-05
   42        0.107604586           8.9796569E-05
   43        0.115551248           1.0868267E-04
   44        0.123887542           1.3098978E-04
   45        0.132623908           1.5724507E-04
   46        0.141770920           1.8804407E-04
   47        0.151339294           2.2405803E-04
   48        0.161339895           2.6604212E-04
   49        0.171783747           3.1484422E-04
   50        0.182682040           3.7141465E-04
   51        0.194046138           4.3681671E-04
   52        0.205887590           5.1223823E-04
   53        0.218218137           5.9900414E-04
   54        0.231049723           6.9859018E-04
   55        0.244394507           8.1263790E-04
   56        0.258264869           9.4297091E-04
   57        0.272673428           1.0916127E-03
   58        0.287633046           1.2608061E-03
   59        0.303156847           1.4530341E-03
   60        0.319258226           1.6710436E-03
   61        0.335950864           1.9178696E-03
   62        0.353248741           2.1968633E-03
   63        0.371166151           2.5117221E-03
   64        0.389717718           2.8665214E-03
   65        0.408918412           3.2657512E-03
   66        0.428783567           3.7143544E-03
   67        0.449328898           4.2177694E-03
   68        0.470570517           4.7819765E-03
   69        0.492524958           5.4135487E-03
   70        0.515209196           6.1197069E-03
   71        0.538640668           6.9083810E-03
   72        0.562837294           7.7882759E-03
   73        0.587817508           8.7689440E-03
   74        0.613600278           9.8608656E-03
   75        0.640205134           1.1075535E-02
   76        0.667652199           1.2425559E-02
   77        0.695962219           1.3924757E-02
   78        0.725156592           1.5588282E-02
   79        0.755257407           1.7432744E-02
   80        0.786287476           1.9476351E-02
   81        0.818270376           2.1739062E-02
   82        0.851230486           2.4242756E-02
   83        0.885193033           2.7011421E-02
   84        0.920184136           3.0071356E-02
   85        0.956230859           3.3451401E-02
   86        0.993361257           3.7183188E-02
   87        1.031604436           4.1301419E-02
   88        1.070990614           4.5844175E-02
   89        1.111551178           5.0853254E-02
   90        1.153318758           5.6374554E-02
   91        1.196327297           6.2458493E-02
   92        1.240612129           6.9160473E-02
   93        1.286210062           7.6541410E-02
   94        1.333159469           8.4668305E-02
   95        1.381500383           9.3614902E-02
   96        1.431274600           1.0346241E-01
   97        1.482525792           1.1430030E-01
   98        1.535299628           1.2622724E-01
   99        1.589643899           1.3935211E-01
  100        1.645608666           1.5379512E-01
  101        1.703246405           1.6968914E-01
  102        1.762612175           1.8718113E-01
  103        1.823763795           2.0643378E-01
  104        1.886762040           2.2762740E-01
  105        1.951670853           2.5096197E-01
  106        2.018557570           2.7665960E-01
  107        2.087493177           3.0496719E-01
  108        2.158552583           3.3615954E-01
  109        2.231814919           3.7054290E-01
  110        2.307363872           4.0845903E-01
  111        2.385288043           4.5028979E-01
  112        2.465681350           4.9646250E-01
  113        2.548643466           5.4745610E-01
  114        2.634280309           6.0380821E-01
  115        2.722704576           6.6612340E-01
  116        2.814036346           7.3508265E-01
  117        2.908403743           8.1145451E-01
  118        3.005943680           8.9610809E-01
  119        3.106802685           9.9002819E-01
  120        3.211137832           1.0943332E+00
  121        3.319117785           1.2102962E+00
  122        3.430923973           1.3393697E+00
  123        3.546751919           1.4832154E+00
  124        3.666812745           1.6437395E+00
  125        3.791334887           1.8231349E+00
  126        3.920566043           2.0239318E+00
  127        4.054775412           2.2490594E+00
  128        4.194256266           2.5019204E+00
  129        4.339328911           2.7864818E+00
  130        4.490344131           3.1073862E+00
  131        4.647687178           3.4700900E+00
  132        4.811782459           3.8810340E+00
  133        4.983099032           4.3478570E+00
  134        5.162157106           4.8796643E+00
  135        5.349535771           5.4873690E+00
  136        5.545882238           6.1841268E+00
  137        5.751922972           6.9858979E+00
  138        5.968477192           7.9121769E+00
  139        6.196473380           8.9869531E+00
  140        6.436969623           1.0239985E+01
  141        6.691178927           1.1708517E+01
  142        6.960501034           1.3439611E+01
  143        7.246562839           1.5493374E+01
  144        7.551270379           1.7947486E+01
  145        7.876876602           2.0903661E+01
  146        8.226071029           2.4497054E+01
  147        8.602100403           2.8910255E+01
  148        9.008934130           3.4394618E+01
  149        9.451496068           4.1303690E+01
  150        9.935997418           5.0147309E+01
  151       10.470428721           6.1682455E+01
  152       11.065311971           7.7072660E+01
  153       11.734897567           9.8182691E+01
  154       12.499164747           1.2815912E+02
  155       13.387374522           1.7266858E+02
  156       14.444891327           2.4282305E+02
  157       15.747713801           3.6310640E+02
  158       17.438313405           5.9750895E+02
  159       19.836544014           1.1671519E+03
  160       23.963033998           3.4280631E+03
     irreducible set of Lebedev Angular points ;
  0.009523809523810  1.000000000000000  0.000000000000000  0.000000000000000
  0.032142857142857  0.577350269189626  0.577350269189626  0.577350269189626
  0.028571428571429  0.459700843380983  0.000000000000000  0.888073833977115
   total no. of   reducible points:  38; test:  1.00000000
  0.012698412698413  1.000000000000000  0.000000000000000  0.000000000000000
  0.022574955908289  0.707106781186547  0.707106781186547  0.000000000000000
  0.021093750000000  0.577350269189626  0.577350269189626  0.577350269189626
  0.020173335537919  0.301511344577764  0.301511344577764  0.904534033733291
   total no. of   reducible points:  50; test:  1.00000000
  0.000513067179734  1.000000000000000  0.000000000000000  0.000000000000000
  0.016604069565742  0.707106781186547  0.707106781186547  0.000000000000000
 -0.029586038961039  0.577350269189626  0.577350269189626  0.577350269189626
  0.026576207082159  0.480384461415261  0.480384461415261  0.733799385705343
  0.016522170993716  0.320772648980776  0.000000000000000  0.947156221362588
   total no. of   reducible points:  74; test:  1.00000000
  0.011544011544012  1.000000000000000  0.000000000000000  0.000000000000000
  0.011943909085856  0.577350269189626  0.577350269189626  0.577350269189626
  0.011110555710603  0.369602846454150  0.369602846454150  0.852518311701268
  0.011876501294537  0.694354006602666  0.694354006602666  0.189063552885395
  0.011812303746904  0.374243039090341  0.000000000000000  0.927330657151172
   total no. of   reducible points:  86; test:  1.00000000
  0.003828270494937  1.000000000000000  0.000000000000000  0.000000000000000
  0.009793737512488  0.577350269189626  0.577350269189626  0.577350269189626
  0.008211737283191  0.185115635344736  0.185115635344736  0.965124035086594
  0.009942814891178  0.690421048382292  0.690421048382292  0.215957291845848
  0.009595471336071  0.395689473055942  0.395689473055942  0.828769981252592
  0.009694996361663  0.478369028812150  0.000000000000000  0.878158910604066
   total no. of   reducible points: 110; test:  1.00000000
  0.000599631368862  1.000000000000000  0.000000000000000  0.000000000000000
  0.007372999718621  0.707106781186547  0.707106781186547  0.000000000000000
  0.007210515360144  0.577350269189626  0.577350269189626  0.577350269189626
  0.007116355493118  0.676441040011426  0.676441040011426  0.291298882209527
  0.006753829486314  0.417496122796545  0.417496122796545  0.807089818359583
  0.007574394159054  0.157467667203908  0.157467667203908  0.974888643677173
  0.006991087353303  0.140355381171318  0.449332832326956  0.882270011260323
   total no. of   reducible points: 146; test:  1.00000000
  0.005544842902037  1.000000000000000  0.000000000000000  0.000000000000000
  0.006071332770671  0.707106781186547  0.707106781186547  0.000000000000000
  0.006383674773515  0.577350269189626  0.577350269189626  0.577350269189626
  0.005183387587748  0.255125262111413  0.255125262111413  0.932642590312691
  0.006317929009814  0.674360146036277  0.674360146036277  0.300793595137701
  0.006201670006589  0.431891069671941  0.431891069671941  0.791795559393492
  0.005477143385137  0.261393136033599  0.000000000000000  0.965232421976448
  0.005968383987681  0.499045316179604  0.144663074432512  0.854415804684659
   total no. of   reducible points: 170; test:  1.00000000
  0.001782340447245  1.000000000000000  0.000000000000000  0.000000000000000
  0.005716905949977  0.707106781186547  0.707106781186547  0.000000000000000
  0.005573383178849  0.577350269189626  0.577350269189626  0.577350269189626
  0.005608704082588  0.671297344269523  0.671297344269523  0.314196994182586
  0.005158237711805  0.289246562757544  0.289246562757544  0.912509096867474
  0.005518771467274  0.444693317871744  0.444693317871744  0.777493219314767
  0.004106777028169  0.129933544765007  0.129933544765007  0.982972302707253
  0.005051846064615  0.345770219761128  0.000000000000000  0.938319218137592
  0.005530248916233  0.159041710538353  0.836036015482459  0.525118572443642
   total no. of   reducible points: 194; test:  1.00000000
 -0.055226399197273  1.000000000000000  0.000000000000000  0.000000000000000
  0.004450274607445  0.577350269189626  0.577350269189626  0.577350269189626
  0.004496841067921  0.449204468739761  0.449204468739761  0.772289253148364
  0.005049153450479  0.252041949021020  0.252041949021020  0.934317778845812
  0.003976408018052  0.698190665844724  0.698190665844724  0.158302205463478
  0.004401400650381  0.658740524346096  0.658740524346096  0.363485684956727
  0.017245443505444  0.040385440500977  0.040385440500977  0.998367683967727
  0.004231083095357  0.582384230971558  0.000000000000000  0.812913653173365
  0.005198069864064  0.354587739051869  0.000000000000000  0.935022745880593
  0.004695720972569  0.227218180899819  0.486466153588665  0.843636521068894
   total no. of   reducible points: 230; test:  1.00000000
 -0.001313769127327  1.000000000000000  0.000000000000000  0.000000000000000
 -0.002522728704859  0.707106781186547  0.707106781186547  0.000000000000000
  0.004186853881701  0.577350269189626  0.577350269189626  0.577350269189626
  0.005315167977811  0.703937339158548  0.703937339158548  0.094575076403713
  0.004047142377086  0.101252624857241  0.101252624857241  0.989694807462905
  0.004112482394407  0.464744872642054  0.464744872642054  0.753673939250816
  0.003595584899759  0.327742065497163  0.327742065497163  0.886098344997499
  0.004256131351428  0.662033866369997  0.662033866369997  0.351315128564633
  0.004229582700647  0.850650808352040  0.000000000000000  0.525731112119134
  0.004080914225781  0.323348454269290  0.115311201100970  0.939227929749916
  0.004071467593831  0.231479015871260  0.524493924092236  0.819343388819120
   total no. of   reducible points: 266; test:  1.00000000
  0.000854591172513  1.000000000000000  0.000000000000000  0.000000000000000
  0.003599119285026  0.577350269189626  0.577350269189626  0.577350269189626
  0.003449788424306  0.351564034557011  0.351564034557011  0.867643624544083
  0.003604822601420  0.656632941021961  0.656632941021961  0.371034178384821
  0.003576729661743  0.472905413258100  0.472905413258100  0.743452042987556
  0.002352101413689  0.096183085226148  0.096183085226148  0.990705621379408
  0.003108953122414  0.221964523629418  0.221964523629418  0.949454317226443
  0.003650045807677  0.701176641608955  0.701176641608955  0.129238672710514
  0.002982344963172  0.264415288706066  0.000000000000000  0.964408914879206
  0.003600820932216  0.571895589187896  0.000000000000000  0.820326419827759
  0.003571540554273  0.251003475177047  0.800072749407395  0.544867737258077
  0.003392312205006  0.123354853258333  0.412772408316853  0.902442529533000
   total no. of   reducible points: 302; test:  1.00000000
  0.003006796749454  1.000000000000000  0.000000000000000  0.000000000000000
  0.003050627745651  0.577350269189626  0.577350269189626  0.577350269189626
  0.001621104600289  0.706896546391232  0.706896546391232  0.024383301669356
  0.003005701484902  0.479468262571203  0.479468262571203  0.734996850587746
  0.002990992529654  0.192753315487802  0.192753315487802  0.962129055136014
  0.002982170644108  0.693035796132712  0.693035796132712  0.198501311223365
  0.002721564237311  0.360830211552009  0.360830211552009  0.860001812127547
  0.003033513795811  0.649848616149617  0.649848616149617  0.394199888605839
  0.003007949555219  0.193294501323034  0.000000000000000  0.981140782843257
  0.002881964603055  0.380049491989930  0.000000000000000  0.924966152698679
  0.002958357626536  0.289955882549957  0.793453785658232  0.535123047718276
  0.003036020026407  0.096841214551040  0.828080150668686  0.552182074349399
  0.002832187403926  0.183343464704166  0.907465826530513  0.378009189874487
   total no. of   reducible points: 350; test:  1.00000000
  0.000526589796822  1.000000000000000  0.000000000000000  0.000000000000000
  0.002548219972003  0.707106781186547  0.707106781186547  0.000000000000000
  0.002512317418927  0.577350269189626  0.577350269189626  0.577350269189626
  0.002530403801186  0.690934630750911  0.690934630750911  0.212646824707552
  0.002014279020919  0.177483605460916  0.177483605460916  0.967987158791473
  0.002501725168403  0.491434263778475  0.491434263778475  0.719016501040843
  0.002513267174598  0.645666470742426  0.645666470742426  0.407712664897770
  0.002302694782227  0.286128901030764  0.286128901030764  0.914472801120872
  0.001462495621595  0.075680843671780  0.075680843671780  0.994255912631278
  0.002445373437313  0.392725976336800  0.392725976336800  0.831584400419232
  0.002417442375639  0.881813287779429  0.000000000000000  0.471598691151316
  0.001910951282180  0.977642811118265  0.000000000000000  0.210272522857307
  0.002416930044325  0.205482369640304  0.868946032287241  0.450233038258263
  0.002512236854563  0.590515704892527  0.799927854385729  0.106801826075805
  0.002496644054553  0.555015236107681  0.771746262691590  0.310428403516654
  0.002236607760438  0.937180985855372  0.334436314534346  0.099217696364292
   total no. of   reducible points: 434; test:  1.00000000
  0.000309512129531  1.000000000000000  0.000000000000000  0.000000000000000
  0.001852379698597  0.577350269189626  0.577350269189626  0.577350269189626
  0.001871790639278  0.704095493822747  0.704095493822747  0.092190407076898
  0.001858812585438  0.680774406645524  0.680774406645524  0.270356088359165
  0.001852028828296  0.637254693925875  0.637254693925875  0.433373868777154
  0.001846715956151  0.504441970780036  0.504441970780036  0.700768575373573
  0.001818471778163  0.421576178401097  0.421576178401097  0.802836877335274
  0.001749564657281  0.331792073647212  0.331792073647212  0.883078727934133
  0.001617210647254  0.238473670142189  0.238473670142189  0.941414158220403
  0.001384737234852  0.145903644915776  0.145903644915776  0.978480583762694
  0.000976433116505  0.060950341155072  0.060950341155072  0.996278129754016
  0.001857161196774  0.611684344200988  0.000000000000000  0.791101929626902
  0.001705153996396  0.396475534819986  0.000000000000000  0.918045287711454
  0.001300321685886  0.172478200990772  0.000000000000000  0.985013335028002
  0.001842866472905  0.561026380862206  0.351828092773352  0.749310611904116
  0.001802658934377  0.474239284255198  0.263471665593795  0.840047488359050
  0.001849830560444  0.598412649788538  0.181664084036021  0.780320742479920
  0.001713904507107  0.379103540769556  0.172079522565688  0.909213475092374
  0.001555213603397  0.277867319058624  0.082130215819325  0.957102074310073
  0.001802239128009  0.503356427107512  0.089992058420749  0.859379855890721
   total no. of   reducible points: 590; test:  1.00000000
  0.000219294208818  1.000000000000000  0.000000000000000  0.000000000000000
  0.001436433617319  0.707106781186547  0.707106781186547  0.000000000000000
  0.001421940344336  0.577350269189626  0.577350269189626  0.577350269189626
  0.000679812351105  0.050872044105024  0.050872044105024  0.997408677652823
  0.000991318423529  0.122819879017883  0.122819879017883  0.984799753572301
  0.001180207833239  0.202689081440879  0.202689081440879  0.958036675983391
  0.001296599602081  0.284774515646429  0.284774515646429  0.915317950483155
  0.001365871427428  0.365671907897803  0.365671907897803  0.855901928697887
  0.001402988604775  0.442826488671347  0.442826488671347  0.779621319527635
  0.001418645563596  0.514061962724974  0.514061962724974  0.686644447264154
  0.001421376741852  0.630640121916680  0.630640121916680  0.452311920313658
  0.001423996475491  0.671688333202261  0.671688333202261  0.312521305001653
  0.001431554042179  0.697979268533688  0.697979268533688  0.160155803498829
  0.000925440149987  0.144686567419531  0.000000000000000  0.989477537495599
  0.001250239995054  0.339026347541122  0.000000000000000  0.940776878793759
  0.001394365843329  0.533580465126351  0.000000000000000  0.845749305193653
  0.001127089094672  0.069440243933494  0.235518789424233  0.969385863498432
  0.001345753760911  0.226900410952946  0.410218247404573  0.883310360522113
  0.001424957283317  0.080255746077753  0.621430241748161  0.779348105702661
  0.001261523341238  0.146799952789657  0.324528434571739  0.934414827052402
  0.001392547106053  0.157150776982473  0.522448218969663  0.838064133458312
  0.001418761677878  0.236570299315725  0.601754663408956  0.762840624604670
  0.001338366684480  0.077148158667657  0.434657551614116  0.897285336132833
  0.001393700862676  0.306293666621073  0.490882658903762  0.815609223203975
  0.001415914757467  0.382247737952479  0.564876814909950  0.731300793659766
   total no. of   reducible points: 770; test:  1.00000000
  0.000143829419053  1.000000000000000  0.000000000000000  0.000000000000000
  0.001125772288287  0.577350269189626  0.577350269189626  0.577350269189626
  0.000494802934195  0.042929635453413  0.042929635453413  0.998155345023847
  0.000735799010913  0.105142685408640  0.105142685408640  0.988883224354686
  0.000888913277130  0.175002486762309  0.175002486762309  0.968890220434707
  0.000988834783892  0.247765337965026  0.247765337965026  0.936602730407163
  0.001053299681709  0.320656712395596  0.320656712395596  0.891267942647606
  0.001092778807015  0.391652074984998  0.391652074984998  0.832596723702352
  0.001114389394063  0.459082587418762  0.459082587418762  0.760582905315251
  0.001123724788052  0.521456388841586  0.521456388841586  0.675400969108414
  0.001125239325244  0.625317024465420  0.625317024465420  0.466858905695743
  0.001126153271816  0.663792674452317  0.663792674452317  0.344613654237438
  0.001130286931124  0.691041039849830  0.691041039849830  0.211954151850184
  0.001134986534364  0.705290700745776  0.705290700745776  0.071624401449956
  0.000682336792711  0.123668676265799  0.000000000000000  0.992323565431490
  0.000945415816045  0.294077711446839  0.000000000000000  0.955781512496548
  0.001074429975386  0.469775384920765  0.000000000000000  0.882785980701182
  0.001129300086569  0.633456324113957  0.000000000000000  0.773778447257375
  0.000843688450090  0.059740486141813  0.202912875277752  0.977372722845310
  0.001075255720449  0.137576040847364  0.460262194248405  0.877058461865803
  0.001108577236864  0.339101652633629  0.503067399966204  0.794942299964208
  0.000956647532378  0.127167519143982  0.281760642244213  0.951020169374390
  0.001080663250717  0.269312074041351  0.433156129172016  0.860143461601762
  0.001126797131196  0.141978645260192  0.625616735858081  0.767102186220558
  0.001022568715358  0.067092846007383  0.379839521685916  0.922616110730809
  0.001108960267713  0.070577381832562  0.551750542142352  0.831017552413474
  0.001122790653436  0.278388847788215  0.602961915615919  0.747620610834086
  0.001032401847117  0.197957893891741  0.358960632958910  0.912118378409121
  0.001107249382284  0.208730706110327  0.534866643813548  0.818748536281022
  0.001121780048520  0.405512213787284  0.567499754607437  0.716591845467024
   total no. of   reducible points: 974; test:  1.00000000
  0.000110518923327  1.000000000000000  0.000000000000000  0.000000000000000
  0.000920523273809  0.707106781186547  0.707106781186547  0.000000000000000
  0.000913315978644  0.577350269189626  0.577350269189626  0.577350269189626
  0.000369042189802  0.037126364496571  0.037126364496571  0.998620681799919
  0.000560399092868  0.091400604122622  0.091400604122622  0.991610739722014
  0.000686529762928  0.153107785246991  0.153107785246991  0.976276606394685
  0.000772033855115  0.218092889166061  0.218092889166061  0.951247067480579
  0.000830154595889  0.283987453220018  0.283987453220018  0.915806886208668
  0.000868669255018  0.349117760096376  0.349117760096376  0.869616915181954
  0.000892707628585  0.412143146144431  0.412143146144431  0.812573722299916
  0.000906082023857  0.471899362714913  0.471899362714913  0.744729469632107
  0.000911977725494  0.527314545284234  0.527314545284234  0.666242253736104
  0.000912872013860  0.620947533244402  0.620947533244402  0.478380938076952
  0.000913071493569  0.656972271185729  0.656972271185729  0.369830866459426
  0.000915287378455  0.684178830907014  0.684178830907014  0.252583955700718
  0.000918743627432  0.701260433012363  0.701260433012363  0.128326186659723
  0.000517697731297  0.107238221547817  0.000000000000000  0.994233354821322
  0.000733114368210  0.258206895949697  0.000000000000000  0.966089643296119
  0.000846323283638  0.417275295530672  0.000000000000000  0.908780131681911
  0.000903112269425  0.570036691179250  0.000000000000000  0.821619237061433
  0.000648577845316  0.982798601826395  0.177177402261533  0.052106394770113
  0.000743503091098  0.962424923032623  0.247571646342629  0.111564095715648
  0.000799852789184  0.940200799412881  0.335461628906649  0.059058888532354
  0.000810173149747  0.932082204014320  0.317361524661198  0.174655167757863
  0.000848338957459  0.904367419939330  0.409026842708536  0.121723505109599
  0.000855629925731  0.891240756007475  0.385429115066922  0.239027847938172
  0.000880320867974  0.867643562846271  0.493222118485128  0.062662506241542
  0.000881104818243  0.858197998604162  0.478532067592243  0.185750519454734
  0.000885028234127  0.839675362404986  0.450742259315706  0.302946697352898
  0.000902134229904  0.816528856402219  0.563212302076210  0.126777480068428
  0.000901009167711  0.801546937078353  0.543430356969390  0.249411216236224
  0.000902269293843  0.777356306907035  0.512351848641987  0.364983226059765
  0.000915801617469  0.766162121390039  0.639427963474910  0.064245492242208
  0.000913157800319  0.755358414353351  0.626980550902439  0.190601822277923
  0.000910781357948  0.734430575755950  0.603116169309631  0.311227594714961
  0.000910576025897  0.704383718402177  0.569370249846844  0.423864478152234
   total no. of   reducible points:1202; test:  1.00000000
  0.000077771607433  1.000000000000000  0.000000000000000  0.000000000000000
  0.000755764641300  0.577350269189626  0.577350269189626  0.577350269189626
  0.000284163380609  0.032292906634139  0.032292906634139  0.998956623864238
  0.000437441912705  0.080367332714622  0.080367332714622  0.993520097262594
  0.000541717474087  0.135428996053165  0.135428996053165  0.981487633165117
  0.000614800089136  0.193896386111443  0.193896386111443  0.961669580940275
  0.000666439448580  0.253734371501127  0.253734371501127  0.933401166400522
  0.000702503935692  0.313525143475257  0.313525143475257  0.896328047546008
  0.000726851178925  0.372155833937534  0.372155833937534  0.850294108254619
  0.000742263753421  0.428680957519570  0.428680957519570  0.795276853253136
  0.000750954503584  0.482251012828299  0.482251012828299  0.731346649169981
  0.000754853505772  0.532067933356626  0.532067933356626  0.658640591360127
  0.000755408896977  0.617299819539427  0.617299819539427  0.487731345715221
  0.000755314717444  0.651067984912748  0.651067984912748  0.390155043595885
  0.000756476765329  0.677731525168736  0.677731525168736  0.285236672931301
  0.000758799180852  0.696310941064874  0.696310941064874  0.174075117999957
  0.000760826183203  0.705893500983175  0.705893500983175  0.058555363028785
  0.000402168044787  0.995554619409186  0.000000000000000  0.094185985013862
  0.000580487179395  0.973411590179421  0.000000000000000  0.229063039585986
  0.000679215195595  0.927569373238863  0.000000000000000  0.373650983980055
  0.000733674121129  0.856802242279510  0.000000000000000  0.515645147000147
  0.000758186630099  0.762349555371937  0.000000000000000  0.647165477620840
  0.000753825785980  0.570752290889222  0.438702803988950  0.694104943230444
  0.000748351724705  0.519646338840308  0.385890841476262  0.762270254565011
  0.000737176366111  0.464633753121535  0.330193737234385  0.821637128756598
  0.000718344889576  0.406390169755769  0.272542357356378  0.872105322408083
  0.000689581552982  0.345632946664309  0.213951023749525  0.913653558859526
  0.000648010580179  0.283139512105033  0.155592230978665  0.946373644151191
  0.000589755889659  0.219768202292533  0.098928789796861  0.970523071240677
  0.000509570884925  0.156469609865035  0.045986429106755  0.986611630545015
  0.000753690642891  0.602735667372129  0.337662514017343  0.722975616397235
  0.000747250596558  0.549603232025510  0.282230130972799  0.786309379645309
  0.000734301713228  0.492170775523457  0.224863234259254  0.840954489612314
  0.000713087158218  0.430942299859848  0.166622472345648  0.886862833757808
  0.000681702203211  0.366410818231367  0.108696490182217  0.924082347686118
  0.000638094114560  0.299018905775844  0.052519897841201  0.952800794667682
  0.000755038137792  0.626872401314500  0.229752365755002  0.744476220506856
  0.000747864664014  0.570732414483461  0.172308060709380  0.802853936449496
  0.000733591872060  0.509636090196037  0.114023846539051  0.852801042441985
  0.000711012052766  0.443872993831246  0.056115220958825  0.894330949550573
  0.000757136397869  0.641997847108239  0.116417442314087  0.757816431224233
  0.000748990832908  0.581721806180261  0.057975895314452  0.811319009870262
   total no. of   reducible points:1454; test:  1.00000000
  qrot: 

              1        2        3      
    1    1.0000   0.0000   0.0000
    2    0.0000   1.0000   0.0000
    3    0.0000   0.0000   1.0000
  me                     0   done genpts
  me                     1   done genpts
  me                     2   done genpts
  me                     4   done genpts
  me                     6   done genpts
  me                     7   done genpts
  me                     3   done genpts
  me                     5   done genpts
  me                     0   done uprt
  me                     1   done uprt
  me                     2   done uprt
  me                     3   done uprt
  me                     4   done uprt
  me                     5   done uprt
  me                     6   done uprt
  me                     7   done uprt
  me                     0  done mem
  me                     1  done mem
  me                     2  done mem
  me                     3  done mem
  me                     4  done mem
  me                     5  done mem
  me                     6  done mem
  me                     7  done mem
  dftinpanae: itol2e                     8  iaoacc                    14  tol_rho    1.0000000000000000E-010

            General Information
            -------------------
          SCF calculation type: DFT
          Wavefunction type:  spin polarized.
          No. of atoms     :     1
          No. of electrons :    32
           Alpha electrons :    17
            Beta electrons :    15
          Charge           :     0
          Spin multiplicity:     3
          Use of symmetry is: off; symmetry adaption is: off
          Maximum number of iterations:  50
          AO basis - number of functions:    69
                     number of shells:    19
          Convergence on energy requested:  1.00D-06
          Convergence on density requested:  1.00D-05
          Convergence on gradient requested:  5.00D-04

              XC Information
              --------------
                     Hartree-Fock (Exact) Exchange  1.000          
                     LC-wPBE(h)Exchange Functional  1.000          
            Perdew 1991 LDA Correlation Functional  1.000 local    
           PerdewBurkeErnz. Correlation Functional  1.000 non-local

           Range-Separation Parameters        
           ---------------------------
           Alpha           :  0.00
           Beta            :  1.00
           Gamma           :  0.40
           Short-Range HF  :     F

             Grid Information
             ----------------
          Grid used for XC integration:  xfine     
          Radial quadrature: Mura-Knowles        
          Angular quadrature: Lebedev. 
          Tag              B.-S. Rad. Rad. Pts. Rad. Cut. Ang. Pts.
          ---              ---------- --------- --------- ---------
          Ge                  1.25      160          13.0      1454
          Grid pruning is: on 
          Number of quadrature shells:   160
          Spatial weights used:  Erf1

          Convergence Information
          -----------------------
          Convergence aids based upon iterative change in 
          total energy or number of iterations. 
          Levelshifting, if invoked, occurs when the 
          HOMO/LUMO gap drops below (HL_TOL):  1.00D-02
          DIIS, if invoked, will attempt to extrapolate 
          using up to (NFOCK): 10 stored Fock matrices.

                    Damping( 0%)  Levelshifting(0.5)       DIIS
                  --------------- ------------------- ---------------
          dE  on:    start            ASAP                start   
          dE off:    2 iters         50 iters            50 iters 


      Screening Tolerance Information
      -------------------------------
          Density screening/tol_rho:  1.00D-10
          AO Gaussian exp screening on grid/accAOfunc:  14
          CD Gaussian exp screening on grid/accCDfunc:  20
          XC Gaussian exp screening on grid/accXCfunc:  20
          Schwarz screening/accCoul:  1.00D-08



                         Geometry "geometry" -> "geometry"
                         ---------------------------------

 Output coordinates in angstroms (scale by  1.889725989 to convert to a.u.)

  No.       Tag          Charge          X              Y              Z
 ---- ---------------- ---------- -------------- -------------- --------------
    1 Ge                  32.0000     0.00000000     0.00000000     0.00000000

      Atomic Mass 
      ----------- 

      Ge                73.921900


 Effective nuclear repulsion energy (a.u.)       0.0000000000

            Nuclear Dipole moment (a.u.) 
            ----------------------------
        X                 Y               Z
 ---------------- ---------------- ----------------
     0.0000000000     0.0000000000     0.0000000000

  
  CAM type calculations without CDFIT are
  only available with the direct option.
  Forcing Direct SCF
  


     <<<<<<    Before call to DFT_SCF.    >>>>>>
     <<<<<< date:  Apr 24  time: 11:16:18 >>>>>>


 Setting tolerance for linear dependence to 1.00D-05





 Setting tolerance for linear dependence to 1.00D-05

 Setting tolerance for linear dependence to 1.00D-05

 Setting tolerance for linear dependence to 1.00D-05
 Setting tolerance for linear dependence to 1.00D-05
 Setting tolerance for linear dependence to 1.00D-05
 Setting tolerance for linear dependence to 1.00D-05
 Setting tolerance for linear dependence to 1.00D-05
  lindep tolerance =    1.0000000000000001E-005
  lindep tolerance =    1.0000000000000001E-005
  lindep tolerance =    1.0000000000000001E-005
  lindep tolerance =    1.0000000000000001E-005
  lindep tolerance =    1.0000000000000001E-005
  lindep tolerance =    1.0000000000000001E-005
  lindep tolerance =    1.0000000000000001E-005
  lindep tolerance =    1.0000000000000001E-005


     <<<<<<    Before 3c-2e initialize.   >>>>>>
     <<<<<< date:  Apr 24  time: 11:16:18 >>>>>>


 Setting fock-build task_bf   :      -1
                    maxquartet:   10000
                    maxeri    :  129600
                    maxscr    :       0
                    intacc    : 0.0D+00
                    denscreen : T
                    dentol    : 1.0D-06


      Superposition of Atomic Density Guess
      -------------------------------------

 Sum of atomic energies:       -2075.34639416

      Non-variational initial energy
      ------------------------------

 Total energy =   -2075.136959
 1-e energy   =   -2895.037946
 2-e energy   =     819.900987
 HOMO         =      -0.073955
 LUMO         =      -0.073955


 Setting fock-build task_bf   :      -1
                    maxquartet:   10000
                    maxeri    :  129600
                    maxscr    :       0
                    intacc    : 0.0D+00
                    denscreen : T
                    dentol    : 1.0D-06


 Wrote molecular orbitals to ./ge.movecs

  WARNING: movecs_in_org=atomic not equal to movecs_in=./ge.movecs
   Time after variat. SCF:      7.8

 Setting fock-build task_bf   :      -1
                    maxquartet:   10000
                    maxeri    :  129600
                    maxscr    :       0
                    intacc    : 0.0D+00
                    denscreen : T
                    dentol    : 1.0D-06

   Time prior to 1st pass:      7.8


     <<<<<<      Before SCF iter loop.    >>>>>>
     <<<<<< date:  Apr 24  time: 11:16:25 >>>>>>

           DAMPING=T LEVELSHIFTING=F DIISING=T
          itol2e= 8 iAOacc=12 iXCacc=20


     <<<<<<            calling 1-e int    >>>>>>
     <<<<<< date:  Apr 24  time: 11:16:25 >>>>>>

    Kinetic Matrix Time:          0.0s

           Kinetic energy =   2074.833529303666

    Potential Matrix Time:          0.0s


     <<<<<<    Before call to GETVXC.     >>>>>>
     <<<<<< date:  Apr 24  time: 11:16:25 >>>>>>



     <<<<<<    Before call to fock_2e.    >>>>>>
     <<<<<< date:  Apr 24  time: 11:16:25 >>>>>>



     <<<<<<     After call to fock_2e.    >>>>>>
     <<<<<< date:  Apr 24  time: 11:16:28 >>>>>>

    Fock_2e Build Time:          2.5s
  *** grid_quadv0:                    calc_type:                    1
  *** grid_quadv0:                    grid_written: F
  *** grid_quadv0:                    grad: T
  *** grid_quadv0:                    kske: F
  *** grid_quadv0:                    kslap: F
  *** grid_quadv0:                    do_scf: T
  *** grid_quadv0:                    fde_option:                    0
  *** grid_quadv0:                    n_per_rec:                 3070
  *** grid_quadv0:                    calc_type:                    1
  *** grid_quadv0:                    grid_written: F
  *** grid_quadv0:                    grad: T
  *** grid_quadv0:                    kske: F
  *** grid_quadv0:                    calc_type:                    1
  *** grid_quadv0:                    grid_written: F
  *** grid_quadv0:                    grad: T
  *** grid_quadv0:                    kske: F
  *** grid_quadv0:                    kslap: F
  *** grid_quadv0:                    do_scf: T
  *** grid_quadv0:                    fde_option:                    0
  *** grid_quadv0:                    calc_type:                    1
  *** grid_quadv0:                    grid_written: F
  *** grid_quadv0:                    grad: T
  *** grid_quadv0:                    kske: F
  *** grid_quadv0:                    kslap: F
  *** grid_quadv0:                    do_scf: T
  *** grid_quadv0:                    fde_option:                    0
  *** grid_quadv0:                    n_per_rec:                 3070
  *** grid_quadv0:                    kslap: F
  *** grid_quadv0:                    do_scf: T
  *** grid_quadv0:                    fde_option:                    0
  *** grid_quadv0:                    n_per_rec:                 3070
  *** grid_quadv0:                    n_per_rec:                 3070
  *** grid_quadv0:                    calc_type:                    1
  *** grid_quadv0:                    grid_written: F
  *** grid_quadv0:                    grad: T
  *** grid_quadv0:                    kske: F
  *** grid_quadv0:                    kslap: F
  *** grid_quadv0:                    do_scf: T
  *** grid_quadv0:                    fde_option:                    0
  *** grid_quadv0:                    n_per_rec:                 3070
  *** grid_quadv0:                    calc_type:                    1
  *** grid_quadv0:                    grid_written: F
  *** grid_quadv0:                    grad: T
  *** grid_quadv0:                    kske: F
  *** grid_quadv0:                    kslap: F
  *** grid_quadv0:                    do_scf: T
  *** grid_quadv0:                    fde_option:                    0
  *** grid_quadv0:                    n_per_rec:                 3070
  *** grid_quadv0:                    calc_type:                    1
  *** grid_quadv0:                    grid_written: F
  *** grid_quadv0:                    grad: T
  *** grid_quadv0:                    kske: F
  *** grid_quadv0:                    kslap: F
  *** grid_quadv0:                    do_scf: T
  *** grid_quadv0:                    fde_option:                    0
  *** grid_quadv0:                    n_per_rec:                 3070
  *** grid_quadv0:                    calc_type:                    1
  *** grid_quadv0:                    grid_written: F
  *** grid_quadv0:                    grad: T
  *** grid_quadv0:                    kske: F
  *** grid_quadv0:                    kslap: F
  *** grid_quadv0:                    do_scf: T
  *** grid_quadv0:                    fde_option:                    0
  *** grid_quadv0:                    n_per_rec:                 3070
   0: nuse=   8 avail= 12500000Mb on .
   1: nuse=   8 avail= 12500000Mb on .
   2: nuse=   8 avail= 12500000Mb on .
   3: nuse=   8 avail= 12500000Mb on .
   4: nuse=   8 avail= 12500000Mb on .
   5: nuse=   8 avail= 12500000Mb on .
   6: nuse=   8 avail= 12500000Mb on .
   7: nuse=   8 avail= 12500000Mb on .
 l_cube input   11.00

  atom type   l_cube   no. cubes   segmts   rad   sub
 ----------- -------- ----------- -------- ----- -----
        1      9.60       124         5      24     8

 Grid_pts file          = ./ge.gridpts.0
 Record size in doubles =  12289        No. of grid_pts per rec  =   3070
 Max. records in memory =     12        Max. recs in file   = 126656358

 me   0 NQTOTC NQ/cube   23823     280
 me   1 NQTOTC NQ/cube   14018    1752
 me   2 NQTOTC NQ/cube    9962    1423
 me   3 NQTOTC NQ/cube   13186    2197
 me   4 NQTOTC NQ/cube   10297    1144
 me   5 NQTOTC NQ/cube   11936    5968
 me   6 NQTOTC NQ/cube   11393    3797
 me   7 NQTOTC NQ/cube   10333    2583

 XC quadr. integrated density :      32.000000 npts:   104603 nctrs:        1

    Fock_xc Build Time:          0.3s


     <<<<<<    Before call to GETVCOUL.   >>>>>>
     <<<<<< date:  Apr 24  time: 11:16:28 >>>>>>



     <<<<<<    End of parallel region.    >>>>>>
     <<<<<< date:  Apr 24  time: 11:16:28 >>>>>>

    Total Fock Matrix Build Time:          2.8s
 Etnew, Ecore, Ecoul, Exc(1), Exc(2), Totsic:   -2076.6476366297156       -2892.4679964545799        894.51288020182687       -78.692520376962833        0.0000000000000000        0.0000000000000000     
  delta =   -2076.6476366297156     
  delta =   -2076.6476366297156     


         Total DFT energy =    -2076.647636629716
      One electron energy =    -2892.467996454580
           Coulomb energy =      894.512880201827
    Exchange-Corr. energy =      -78.692520376963
 Nuclear repulsion energy =        0.000000000000

 Numeric. integr. density =       31.999999998950

  delta =   -2076.6476366297156     
  delta =   -2076.6476366297156     
     Total iterative time =     11.0s




     <<<<<<        calling diis driver    >>>>>>
     <<<<<< date:  Apr 24  time: 11:16:28 >>>>>>

  delta =   -2076.6476366297156     
  delta =   -2076.6476366297156     
  delta =   -2076.6476366297156     
  delta =   -2076.6476366297156     
 nhist                     1  pulay matrix 
   0.0000E+00
  -1.0000E+00   6.4184E-01


     <<<<<<         called diis driver    >>>>>>
     <<<<<< date:  Apr 24  time: 11:16:28 >>>>>>


 global array: fock transf[1:69,1:69],  handle: -940 

            1           2           3           4           5           6  
       ----------- ----------- ----------- ----------- ----------- -----------
   1      11.30865     0.00000     0.00000    -0.00000   -18.24958    -6.18650
   2       0.00000     2.76485    -0.00056    -0.00042     0.00000    -0.00000
   3       0.00000    -0.00056     2.76002    -0.00372     0.00000    -0.00000
   4      -0.00000    -0.00042    -0.00372     2.76208    -0.00000     0.00000
   5     -18.24958     0.00000     0.00000    -0.00000    46.53039    21.11517
   6      -6.18650    -0.00000    -0.00000     0.00000    21.11517    11.84413
   7       0.00000    -0.44163     0.00838    -0.20173     0.00000    -0.00000
   8       0.00000    -0.19821    -0.11237     0.42881     0.00000    -0.00000
   9      -0.00000     0.03950    -0.47168    -0.10465    -0.00000     0.00000
  10      -0.46907     0.00000    -0.00000    -0.00000     1.64318     1.19974
  11      -0.00000     0.00008    -0.00020    -0.00009    -0.00000     0.00000
  12       0.66159     0.00000    -0.00000    -0.00000    -1.76056    -1.07517
  13      -0.00000     0.00009    -0.00008    -0.00015    -0.00000     0.00000
  14      -0.00000    -0.00003     0.00024     0.00020    -0.00000     0.00000
  15       0.00000    -0.00009    -0.00041    -0.00014     0.00000    -0.00000
  16      -0.00033     0.00000     0.00000    -0.00000    -0.00012    -0.00026
  17      -0.00037    -0.00000    -0.00000     0.00000    -0.00013    -0.00029
  18       0.00011     0.00000     0.00000     0.00000     0.00004     0.00009
  19      -0.00000     0.00608    -0.01733     0.02366    -0.00000     0.00000
  20       0.00000     0.01675     0.02172     0.01202     0.00000    -0.00000
  21       0.00000     0.02403    -0.01057    -0.01407     0.00000    -0.00000
  22      -0.00000    -0.00036    -0.00009    -0.00027    -0.00000     0.00000
  23       0.00055     0.00000     0.00000    -0.00000     0.00020     0.00043
  24       0.00036     0.00000     0.00000    -0.00000     0.00013     0.00028
  25      -0.00000     0.12215    -0.03448     0.18373    -0.00000     0.00000
  26      -0.00000    -0.15917     0.09663     0.12366    -0.00000     0.00000
  27      -0.00000    -0.09835    -0.19865     0.02849    -0.00000     0.00000
  28       0.00000    -0.00000    -0.00020    -0.00033     0.00000    -0.00000
  29       0.00000     0.00047     0.00035    -0.00020     0.00000    -0.00000
  30       0.00000     0.00004    -0.00018    -0.00060     0.00000    -0.00000
  31       0.00005     0.00000     0.00000    -0.00000     0.00001     0.00011
  32       0.00003    -0.00000    -0.00000     0.00000     0.00001     0.00007
  33      -0.00003     0.00000     0.00000     0.00000    -0.00001    -0.00008
  34      -0.00000    -0.01737    -0.01939     0.02889    -0.00000     0.00000
  35       0.00000    -0.00257    -0.03143    -0.02320     0.00000    -0.00000
  36      -0.00000    -0.03477     0.01121    -0.01307    -0.00000     0.00000
  37       0.00002    -0.00000    -0.00000     0.00000     0.00011     0.00017
  38      -0.00002     0.00000    -0.00000    -0.00000    -0.00016    -0.00025
  39      -0.00000    -0.00000    -0.00000     0.00000    -0.00003    -0.00005
  40       0.02504    -0.00000     0.00000     0.00000     0.06652     0.21863
  41      -0.00003     0.00000     0.00000    -0.00000    -0.00001    -0.00007
  42       0.00008    -0.00000    -0.00000     0.00000     0.00002     0.00018
  43       0.00000    -0.03115    -0.00074     0.00261     0.00000    -0.00000
  44      -0.00000    -0.00101     0.02954    -0.00661    -0.00000     0.00000
  45       0.00000     0.00254     0.00536     0.03010     0.00000    -0.00000
  46      -0.00003     0.00000     0.00000    -0.00000    -0.00016    -0.00003
  47      -0.00000    -0.00000    -0.00000     0.00000    -0.00002    -0.00000
  48       0.00005     0.00000     0.00000    -0.00000     0.00028     0.00006
  49       0.00000    -0.00000    -0.00000    -0.00000     0.00002     0.00003
  50       0.00004    -0.00000    -0.00000     0.00000     0.00025     0.00039
  51       0.16589     0.00000    -0.00000    -0.00000    -0.34317    -0.03851
  52       0.00000     0.00537    -0.03025    -0.01039     0.00000    -0.00000
  53       0.00000    -0.01363     0.00711    -0.02834     0.00000    -0.00000
  54      -0.00000    -0.02868    -0.00908     0.01149    -0.00000     0.00000
  55       0.05808     0.00000    -0.00000    -0.00000    -0.18772    -0.12948
  56       0.00000     0.00170    -0.00292     0.01239     0.00000    -0.00000
  57      -0.00000     0.00262     0.01257     0.00298     0.00000    -0.00000
  58      -0.00000     0.01238    -0.00218    -0.00229    -0.00000     0.00000
  59       0.00004     0.00000     0.00000    -0.00000     0.00022     0.00005
  60      -0.00006    -0.00000    -0.00000     0.00000    -0.00034    -0.00007
  61       0.00000    -0.00147     0.04114     0.00316     0.00000    -0.00000
  62      -0.00000     0.01230     0.00366    -0.03931    -0.00000     0.00000
  63      -0.00000     0.03952     0.00031     0.01230    -0.00000     0.00000
  64      -0.06105     0.00000    -0.00000    -0.00000     0.22093     0.13397
  65      -0.28884    -0.00000     0.00000     0.00000     0.64213     0.22321
  66      -0.00000     0.00211    -0.01040     0.01326    -0.00000     0.00000
  67      -0.00000    -0.00552     0.01035     0.00919    -0.00000     0.00000
  68       0.00000     0.01592     0.00470     0.00121     0.00000    -0.00000
  69      -0.08019     0.00000    -0.00000    -0.00000     0.13896     0.03002

            7           8           9          10          11          12  
       ----------- ----------- ----------- ----------- ----------- -----------
   1       0.00000     0.00000    -0.00000    -0.46907    -0.00000     0.66159
   2      -0.44163    -0.19821     0.03950     0.00000     0.00008     0.00000
   3       0.00838    -0.11237    -0.47168    -0.00000    -0.00020    -0.00000
   4      -0.20173     0.42881    -0.10465    -0.00000    -0.00009    -0.00000
   5       0.00000     0.00000    -0.00000     1.64318    -0.00000    -1.76056
   6      -0.00000    -0.00000     0.00000     1.19974     0.00000    -1.07517
   7       0.72078     0.00061    -0.00179     0.00000    -0.00047     0.00000
   8       0.00061     0.72079     0.00175     0.00000     0.00000     0.00000
   9      -0.00179     0.00175     0.71643    -0.00000     0.00010    -0.00000
  10       0.00000     0.00000    -0.00000     0.45498     0.00000    -0.58071
  11      -0.00047     0.00000     0.00010     0.00000     1.07560     0.00000
  12       0.00000     0.00000    -0.00000    -0.58071     0.00000     2.36235
  13      -0.00032    -0.00046    -0.00002    -0.00000     0.00027    -0.00000
  14       0.00024     0.00002    -0.00012    -0.00000    -0.00032    -0.00000
  15      -0.00006     0.00045     0.00025     0.00000     0.00027     0.00000
  16       0.00000     0.00000     0.00000     0.00031     0.00000     0.00026
  17      -0.00000    -0.00000    -0.00000     0.00034    -0.00000     0.00030
  18       0.00000     0.00000     0.00000    -0.00010    -0.00000    -0.00009
  19      -0.12490     0.17961     0.10181    -0.00000     0.00147    -0.00000
  20      -0.16062    -0.01005    -0.17938     0.00000     0.00210     0.00000
  21      -0.12954    -0.16057     0.12481     0.00000     0.00101     0.00000
  22       0.00016    -0.00003     0.00006     0.00000    -0.36153     0.00000
  23       0.00000     0.00000     0.00000    -0.00050    -0.00000    -0.00043
  24      -0.00000     0.00000     0.00000    -0.00033    -0.00000    -0.00028
  25      -0.42018     0.26904     0.00819    -0.00000    -0.00009    -0.00000
  26       0.21248     0.33909    -0.29781    -0.00000    -0.00013    -0.00000
  27       0.16570     0.24870     0.39920    -0.00000     0.00014    -0.00000
  28       0.00005    -0.00011     0.00008     0.00000    -0.00016     0.00000
  29      -0.00012    -0.00014    -0.00008     0.00000     0.00018     0.00000
  30       0.00009    -0.00014     0.00011     0.00000    -0.00024     0.00000
  31       0.00000     0.00000     0.00000     0.00024    -0.00000     0.00030
  32      -0.00000    -0.00000    -0.00000     0.00015    -0.00000     0.00019
  33       0.00000    -0.00000     0.00000    -0.00018    -0.00000    -0.00023
  34       0.00752     0.08156     0.02513    -0.00000     0.00005    -0.00000
  35       0.02391    -0.02607     0.07725     0.00000     0.00030     0.00000
  36       0.08187     0.00025    -0.02514    -0.00000     0.00024    -0.00000
  37      -0.00000    -0.00000     0.00000     0.00027    -0.00000    -0.00104
  38       0.00000     0.00000    -0.00000    -0.00040    -0.00000     0.00152
  39      -0.00000    -0.00000    -0.00000    -0.00007     0.00000     0.00029
  40      -0.00000    -0.00000     0.00000     0.21490    -0.00000    -0.08860
  41       0.00000     0.00000     0.00000    -0.00015    -0.00000    -0.00020
  42      -0.00000    -0.00000    -0.00000     0.00040     0.00000     0.00051
  43      -0.01965    -0.01104     0.00201     0.00000     0.00072     0.00000
  44      -0.00306     0.00877     0.02066    -0.00000     0.00002    -0.00000
  45       0.01060    -0.01763     0.00859     0.00000    -0.00055     0.00000
  46       0.00000     0.00000     0.00000    -0.00002    -0.00000     0.00075
  47      -0.00000    -0.00000    -0.00000    -0.00000    -0.00000     0.00008
  48       0.00000     0.00000     0.00000     0.00004    -0.00000    -0.00135
  49      -0.00000    -0.00000    -0.00000     0.00005    -0.00000    -0.00020
  50      -0.00000    -0.00000    -0.00000     0.00061     0.00000    -0.00235
  51       0.00000     0.00000    -0.00000    -0.01080     0.00000     1.72612
  52      -0.00038    -0.00127     0.00953     0.00000     0.00000     0.00000
  53       0.00732    -0.00636    -0.00063     0.00000     0.00005     0.00000
  54       0.00639     0.00724     0.00120    -0.00000     0.00004    -0.00000
  55       0.00000     0.00000    -0.00000    -0.13424     0.00000     1.84046
  56      -0.03437     0.05584     0.00233     0.00000     0.00076     0.00000
  57      -0.01666    -0.00759    -0.06338     0.00000     0.00031     0.00000
  58      -0.05331    -0.03361     0.01839    -0.00000     0.00098    -0.00000
  59      -0.00000     0.00000     0.00000     0.00003    -0.00000    -0.00106
  60      -0.00000    -0.00000    -0.00000    -0.00005     0.00000     0.00165
  61       0.00018    -0.00342    -0.02617     0.00000     0.00009     0.00000
  62       0.00336    -0.02503     0.00418    -0.00000    -0.00034    -0.00000
  63      -0.02521    -0.00318    -0.00004    -0.00000     0.00132    -0.00000
  64       0.00000     0.00000    -0.00000     0.05367     0.00000    -0.74841
  65      -0.00000    -0.00000     0.00000     0.06583    -0.00000    -1.38358
  66      -0.00451     0.00783     0.00455    -0.00000     0.00047    -0.00000
  67       0.00029     0.00531    -0.00927    -0.00000    -0.00011    -0.00000
  68      -0.00905    -0.00361    -0.00282     0.00000     0.00073     0.00000
  69       0.00000     0.00000    -0.00000    -0.00815     0.00000    -0.20521

           13          14          15          16          17          18  
       ----------- ----------- ----------- ----------- ----------- -----------
   1      -0.00000    -0.00000     0.00000    -0.00033    -0.00037     0.00011
   2       0.00009    -0.00003    -0.00009     0.00000    -0.00000     0.00000
   3      -0.00008     0.00024    -0.00041     0.00000    -0.00000     0.00000
   4      -0.00015     0.00020    -0.00014    -0.00000     0.00000     0.00000
   5      -0.00000    -0.00000     0.00000    -0.00012    -0.00013     0.00004
   6       0.00000     0.00000    -0.00000    -0.00026    -0.00029     0.00009
   7      -0.00032     0.00024    -0.00006     0.00000    -0.00000     0.00000
   8      -0.00046     0.00002     0.00045     0.00000    -0.00000     0.00000
   9      -0.00002    -0.00012     0.00025     0.00000    -0.00000     0.00000
  10      -0.00000    -0.00000     0.00000     0.00031     0.00034    -0.00010
  11       0.00027    -0.00032     0.00027     0.00000    -0.00000    -0.00000
  12      -0.00000    -0.00000     0.00000     0.00026     0.00030    -0.00009
  13       1.07696     0.00161     0.00041    -0.00000     0.00000    -0.00000
  14       0.00161     1.07640    -0.00063     0.00000     0.00000    -0.00000
  15       0.00041    -0.00063     1.07411     0.00000    -0.00000     0.00000
  16      -0.00000     0.00000     0.00000     0.97366    -0.00233     0.00064
  17       0.00000     0.00000    -0.00000    -0.00233     0.97100    -0.00049
  18      -0.00000    -0.00000     0.00000     0.00064    -0.00049     0.97046
  19      -0.00096    -0.00195     0.00192    -0.00000     0.00000    -0.00000
  20       0.00176    -0.00093     0.00064     0.00000    -0.00000     0.00000
  21       0.00235    -0.00014    -0.00051     0.00000    -0.00000    -0.00000
  22      -0.00016     0.00022    -0.00021     0.00000    -0.00000    -0.00000
  23      -0.00000     0.00000     0.00000     0.00058    -0.00037    -0.00111
  24      -0.00000     0.00000     0.00000    -0.00000    -0.00026     0.00160
  25      -0.00004     0.00054     0.00009    -0.00000     0.00000    -0.00000
  26       0.00014     0.00022     0.00066    -0.00000     0.00000     0.00000
  27       0.00002     0.00068     0.00040    -0.00000     0.00000    -0.00000
  28       0.16751     0.30815    -0.09069     0.00000    -0.00000     0.00000
  29       0.28995    -0.18817    -0.10526     0.00000    -0.00000     0.00000
  30      -0.13741    -0.02367    -0.33348    -0.00000    -0.00000     0.00000
  31      -0.00000     0.00000     0.00000    -0.33035    -0.11167    -0.13428
  32       0.00000     0.00000    -0.00000     0.12884    -0.34990    -0.02510
  33      -0.00000    -0.00000     0.00000     0.11820     0.06846    -0.34769
  34       0.00049     0.00072     0.00037    -0.00000     0.00000    -0.00000
  35      -0.00000    -0.00005    -0.00002    -0.00000    -0.00000    -0.00000
  36       0.00024    -0.00021     0.00015    -0.00000     0.00000     0.00000
  37       0.00000     0.00000    -0.00000    -0.03590    -0.16171    -0.12112
  38      -0.00000    -0.00000     0.00000     0.10592     0.08995    -0.15117
  39       0.00000     0.00000    -0.00000     0.17249    -0.08907     0.06766
  40       0.00000     0.00000    -0.00000     0.00185     0.00209    -0.00063
  41      -0.00000    -0.00000     0.00000    -0.00002     0.00002     0.00011
  42       0.00000    -0.00000    -0.00000     0.00000    -0.00005     0.00005
  43       0.00084    -0.00043    -0.00049     0.00000    -0.00000     0.00000
  44      -0.00051     0.00042     0.00018    -0.00000     0.00000    -0.00000
  45       0.00016     0.00034    -0.00113     0.00000    -0.00000    -0.00000
  46      -0.00000     0.00000     0.00000     0.10037     0.01598     0.07427
  47       0.00000     0.00000    -0.00000    -0.06501     0.08554     0.06592
  48      -0.00000    -0.00000     0.00000    -0.04029    -0.08974     0.07624
  49      -0.00000     0.00000    -0.00000     0.00001    -0.00002    -0.00017
  50       0.00000    -0.00000    -0.00000    -0.00019    -0.00030     0.00009
  51      -0.00000    -0.00000     0.00000     0.00001     0.00001    -0.00000
  52       0.00002    -0.00004     0.00004    -0.00000    -0.00000    -0.00000
  53       0.00000    -0.00001     0.00008     0.00000    -0.00000     0.00000
  54       0.00006    -0.00005    -0.00007    -0.00000     0.00000    -0.00000
  55      -0.00000    -0.00000     0.00000    -0.00012    -0.00013     0.00004
  56      -0.00038     0.00015     0.00188     0.00000    -0.00000     0.00000
  57       0.00072    -0.00097     0.00006    -0.00000     0.00000    -0.00000
  58       0.00103    -0.00068    -0.00104    -0.00000     0.00000     0.00000
  59      -0.00000     0.00000     0.00000     0.00038     0.00033     0.00053
  60       0.00000    -0.00000    -0.00000    -0.00084    -0.00053     0.00065
  61       0.00062    -0.00091     0.00017    -0.00000     0.00000    -0.00000
  62       0.00074    -0.00022    -0.00221    -0.00000     0.00000    -0.00000
  63       0.00099    -0.00085    -0.00003    -0.00000     0.00000    -0.00000
  64      -0.00000    -0.00000     0.00000     0.00028     0.00031    -0.00009
  65       0.00000     0.00000    -0.00000     0.00024     0.00027    -0.00008
  66      -0.00037     0.00027     0.00112    -0.00000     0.00000    -0.00000
  67      -0.00020    -0.00003     0.00066    -0.00000     0.00000     0.00000
  68       0.00080    -0.00066    -0.00046     0.00000    -0.00000     0.00000
  69      -0.00000    -0.00000     0.00000    -0.00164    -0.00185     0.00056

           19          20          21          22          23          24  
       ----------- ----------- ----------- ----------- ----------- -----------
   1      -0.00000     0.00000     0.00000    -0.00000     0.00055     0.00036
   2       0.00608     0.01675     0.02403    -0.00036     0.00000     0.00000
   3      -0.01733     0.02172    -0.01057    -0.00009     0.00000     0.00000
   4       0.02366     0.01202    -0.01407    -0.00027    -0.00000    -0.00000
   5      -0.00000     0.00000     0.00000    -0.00000     0.00020     0.00013
   6       0.00000    -0.00000    -0.00000     0.00000     0.00043     0.00028
   7      -0.12490    -0.16062    -0.12954     0.00016     0.00000    -0.00000
   8       0.17961    -0.01005    -0.16057    -0.00003     0.00000     0.00000
   9       0.10181    -0.17938     0.12481     0.00006     0.00000     0.00000
  10      -0.00000     0.00000     0.00000     0.00000    -0.00050    -0.00033
  11       0.00147     0.00210     0.00101    -0.36153    -0.00000    -0.00000
  12      -0.00000     0.00000     0.00000     0.00000    -0.00043    -0.00028
  13      -0.00096     0.00176     0.00235    -0.00016    -0.00000    -0.00000
  14      -0.00195    -0.00093    -0.00014     0.00022     0.00000     0.00000
  15       0.00192     0.00064    -0.00051    -0.00021     0.00000     0.00000
  16      -0.00000     0.00000     0.00000     0.00000     0.00058    -0.00000
  17       0.00000    -0.00000    -0.00000    -0.00000    -0.00037    -0.00026
  18      -0.00000     0.00000    -0.00000    -0.00000    -0.00111     0.00160
  19       1.07582     0.00020     0.00022    -0.00037    -0.00000    -0.00000
[...]
  60      -0.97443     2.14578    -3.92709    -0.00001    -1.57036     4.32181
  61       1.42249    -3.65697    -2.35857    -0.00000     2.29325    -5.18487
  62      -4.20670    -1.73632     0.11702     0.00000    -6.78178    -2.75260
  63      -0.97368     2.14399    -3.92742    -0.00001    -1.57064     4.32252
  64      -0.00529     0.00733    -0.00394     0.00000     0.00193    -0.00320
  65      -0.96675     2.14265    -3.91774    -0.00001    -1.57317     4.32365
  66       1.42267    -3.65726    -2.35664    -0.00000     2.29319    -5.18463
  67      -4.20465    -1.73983     0.10830     0.00000    -6.78253    -2.75173
  68       1.41169    -3.65199    -2.35112    -0.00000     2.29720    -5.18642
  69      -4.19726    -1.72961     0.11211     0.00000    -6.78523    -2.75562

           67          68          69  
       ----------- ----------- -----------
   1      -0.00001     0.91685     1.03546
   2      -0.00005     6.74142    15.64588
   3      -0.00024    28.00772    30.83201
   4      -0.00035    39.81614     9.96284
   5       0.00002   -17.97788    19.58552
   6       0.00013    31.61372     5.87706
   7       0.00011     4.05352     1.14083
   8       0.90394     0.00001    -0.00000
   9       0.73305     0.00001    -0.00000
  10       0.03856    -0.00000    -0.00000
  11      10.89619     0.00012    -0.00001
  12       8.83635     0.00008    -0.00000
  13       0.46476    -0.00003    -0.00000
  14      25.91827     0.00027    -0.00001
  15      21.01860     0.00020    -0.00001
  16       1.10549    -0.00006    -0.00000
  17      -6.37282    -0.00007     0.00000
  18      -5.16808    -0.00005     0.00000
  19      -0.27182     0.00002     0.00000
  20       5.61363     0.00007    -0.00000
  21       4.55242     0.00005    -0.00000
  22       0.23944    -0.00001    -0.00000
  23      -0.48060    -0.00001     0.00000
  24      -0.38975    -0.00000     0.00000
  25      -0.02050     0.00000     0.00000
  26      -0.00000    -0.67090   -18.17034
  27       0.00000     0.00013    -0.00000
  28      -0.00000    -0.00038     0.00000
  29      -0.00000    -0.67095   -18.17034
  30      -0.00000     0.00055    -0.00000
  31      -0.00000    -0.67167   -18.17033
  32       0.00007   -10.13574    -7.95408
  33      -0.00000    -0.00042     0.00001
  34       0.00000     0.00125    -0.00002
  35       0.00007   -10.13558    -7.95408
  36       0.00000    -0.00182     0.00002
  37       0.00007   -10.13319    -7.95411
  38       0.00000   -15.86128    -3.12129
  39       0.00000     0.00035    -0.00001
  40      -0.00000    -0.00103     0.00002
  41       0.00000   -15.86142    -3.12128
  42      -0.00000     0.00151    -0.00003
  43       0.00000   -15.86340    -3.12124
  44      -0.00005    -3.25761    -0.76566
  45      -0.00000    -0.00014     0.00000
  46       0.00000     0.00041    -0.00001
  47      -0.00005    -3.25756    -0.76566
  48       0.00000    -0.00060     0.00001
  49      -0.00005    -3.25676    -0.76568
  50     -12.96723    -0.00014     0.00001
  51     -10.51711    -0.00010     0.00000
  52      -0.54942     0.00003     0.00000
  53     -12.96776    -0.00014     0.00001
  54      -0.00244    -0.00000     0.00000
  55     -12.95957    -0.00014     0.00001
  56     -10.51548    -0.00010     0.00000
  57      -0.55742     0.00003     0.00000
  58     -10.51001    -0.00010     0.00000
  59      -0.55277     0.00003     0.00000
  60      -5.65884    -0.00007     0.00000
  61      -4.58850    -0.00005     0.00000
  62      -0.24308     0.00001     0.00000
  63      -5.65860    -0.00007     0.00000
  64       0.00114     0.00000    -0.00000
  65      -5.66242    -0.00007     0.00000
  66      -4.58926    -0.00005     0.00000
  67      -0.23934     0.00001     0.00000
  68      -4.59182    -0.00005     0.00000
  69      -0.24152     0.00001     0.00000
  int_init: cando_txs set to always be  F
                                NWChem TDDFT Module
                                -------------------


            General Information
            -------------------
           No. of orbitals :     138
            Alpha orbitals :      69
             Beta orbitals :      69
        Alpha frozen cores :       0
         Beta frozen cores :       0
     Alpha frozen virtuals :       0
      Beta frozen virtuals :       0
         Spin multiplicity :       3
    Number of AO functions :      69
        Use of symmetry is : off
      Symmetry adaption is : off
         Schwarz screening :  0.10D-07

              XC Information
              --------------
              Hartree-Fock (Exact) Exchange   1.00          
              LC-wPBE(h)Exchange Functional   1.00          
     Perdew 1991 LDA Correlation Functional   1.00 local    
    PerdewBurkeErnz. Correlation Functional   1.00 non-local
           Alpha           :  0.00
           Beta            :  1.00
           Gamma           :  0.40

             TDDFT Information
             -----------------
          Calculation type : TDDFT             
         Wavefunction type : Unrestricted
          No. of electrons :      32
           Alpha electrons :      17
            Beta electrons :      15
              No. of roots :       5
          Max subspacesize :    5000
            Max iterations :     100
               Target root :       1
           Target symmetry : none
      Symmetry restriction : off
                 Algorithm : Optimal
        Davidson threshold :  0.10D-03

            Memory Information
            ------------------
          Available GA space size is       52428790478 doubles
          Available MA space size is        4194422252 doubles
          Length of a trial vector is          884     810
          Algorithm : Incore multiple tensor contraction
          Estimated peak GA usage is          34696788 doubles
          Estimated peak MA usage is             18000 doubles

    5 smallest eigenvalue differences (eV) 
--------------------------------------------------------
  No. Spin  Occ  Vir  Irrep   E(Occ)    E(Vir)   E(Diff)
--------------------------------------------------------
    1    1   17   18 a        -0.293    -0.039     6.920
    2    1   16   18 a        -0.293    -0.039     6.920
    3    1   17   19 a        -0.293     0.032     8.858
    4    1   16   19 a        -0.293     0.032     8.858
    5    1   17   20 a        -0.293     0.054     9.460
--------------------------------------------------------

  Entering Davidson iterations
  Unrestricted

  Iter   NTrls   NConv    DeltaV     DeltaE      Time   
  ----  ------  ------  ---------  ---------  --------- 
    1      5       0     0.76E-01   0.10+100       11.0
    2     15       0     0.30E-01   0.15E-01       13.6
    3     25       0     0.31E-01   0.17E-02       18.0
    4     33       0     0.16E-01   0.83E-03       18.2
    5     41       0     0.16E-02   0.62E-04       18.4
    6     49       2     0.10E-02   0.15E-05       16.2
    7     55       4     0.10E-02   0.14E-05       11.5
    8     57       4     0.29E-03   0.59E-06        9.0
    9     59       5     0.10E-03   0.32E-07        9.7
  ----  ------  ------  ---------  ---------  --------- 
  Convergence criterion met

  Ground state a       -2076.687184017075 a.u.
  <S2> =   2.0063

  ----------------------------------------------------------------------------
  Root   1         a              0.000037317 a.u.                0.0010 eV 
  <S2> =   2.0065
  ----------------------------------------------------------------------------
     Transition Moments    X -0.00000   Y  0.00000   Z -0.00000
     Transition Moments   XX -7.26477  XY  4.40465  XZ-15.14885
     Transition Moments   YY  2.62696  YZ -4.66846  ZZ  4.63782
     Dipole Oscillator Strength                    0.0000000000
     Electric Quadrupole                           0.0000000000
     Magnetic Dipole                               0.0000000000
     Total Oscillator Strength                     0.0000000000

     Occ.   15 alpha a   ---  Virt.   26 alpha a    0.19768 X
     Occ.   15 alpha a   ---  Virt.   26 alpha a    0.19753 Y
     Occ.   15 alpha a   ---  Virt.   35 alpha a    0.19874 X
     Occ.   15 alpha a   ---  Virt.   35 alpha a    0.19861 Y
     Occ.   16 alpha a   ---  Virt.   18 alpha a    3.96676 X
     Occ.   16 alpha a   ---  Virt.   18 alpha a    3.88103 Y
     Occ.   16 alpha a   ---  Virt.   22 alpha a    0.74677 X
     Occ.   16 alpha a   ---  Virt.   22 alpha a    0.73073 Y
     Occ.   16 alpha a   ---  Virt.   31 alpha a   -0.41139 X
     Occ.   16 alpha a   ---  Virt.   31 alpha a   -0.40255 Y
     Occ.   16 alpha a   ---  Virt.   45 alpha a    0.10792 X
     Occ.   16 alpha a   ---  Virt.   45 alpha a    0.10533 Y
     Occ.   17 alpha a   ---  Virt.   18 alpha a    2.57019 X
     Occ.   17 alpha a   ---  Virt.   18 alpha a    2.51464 Y
     Occ.   17 alpha a   ---  Virt.   22 alpha a    0.48385 X
     Occ.   17 alpha a   ---  Virt.   22 alpha a    0.47347 Y
     Occ.   17 alpha a   ---  Virt.   31 alpha a   -0.26655 X
     Occ.   17 alpha a   ---  Virt.   31 alpha a   -0.26083 Y
     Occ.   17 alpha a   ---  Virt.   45 alpha a    0.06992 X
     Occ.   17 alpha a   ---  Virt.   45 alpha a    0.06825 Y
     Occ.   15 beta  a   ---  Virt.   25 beta  a   -0.13543 X
     Occ.   15 beta  a   ---  Virt.   25 beta  a   -0.13540 Y
     Occ.   15 beta  a   ---  Virt.   34 beta  a    0.05454 X
     Occ.   15 beta  a   ---  Virt.   34 beta  a    0.05454 Y
     Occ.   15 beta  a   ---  Virt.   35 beta  a   -0.24424 X
     Occ.   15 beta  a   ---  Virt.   35 beta  a   -0.24421 Y
     Occ.   15 beta  a   ---  Virt.   51 beta  a   -0.10956 X
     Occ.   15 beta  a   ---  Virt.   51 beta  a   -0.10956 Y
  ----------------------------------------------------------------------------
  Root   2         a              0.000037319 a.u.                0.0010 eV 
  <S2> =   2.0065
  ----------------------------------------------------------------------------
     Transition Moments    X  0.00000   Y -0.00000   Z  0.00000
     Transition Moments   XX -1.32854  XY  4.44602  XZ -1.53930
     Transition Moments   YY-10.15166  YZ 13.06964  ZZ 11.48020
     Dipole Oscillator Strength                    0.0000000000
     Electric Quadrupole                           0.0000000000
     Magnetic Dipole                               0.0000000000
     Total Oscillator Strength                     0.0000000000

     Occ.   15 alpha a   ---  Virt.   25 alpha a   -0.19768 X
     Occ.   15 alpha a   ---  Virt.   25 alpha a   -0.19753 Y
     Occ.   15 alpha a   ---  Virt.   34 alpha a   -0.19874 X
     Occ.   15 alpha a   ---  Virt.   34 alpha a   -0.19860 Y
     Occ.   16 alpha a   ---  Virt.   18 alpha a   -2.57012 X
     Occ.   16 alpha a   ---  Virt.   18 alpha a   -2.51458 Y
     Occ.   16 alpha a   ---  Virt.   22 alpha a   -0.48384 X
     Occ.   16 alpha a   ---  Virt.   22 alpha a   -0.47345 Y
     Occ.   16 alpha a   ---  Virt.   31 alpha a    0.26654 X
     Occ.   16 alpha a   ---  Virt.   31 alpha a    0.26082 Y
     Occ.   16 alpha a   ---  Virt.   45 alpha a   -0.06992 X
     Occ.   16 alpha a   ---  Virt.   45 alpha a   -0.06824 Y
     Occ.   17 alpha a   ---  Virt.   18 alpha a    3.96666 X
     Occ.   17 alpha a   ---  Virt.   18 alpha a    3.88093 Y
     Occ.   17 alpha a   ---  Virt.   22 alpha a    0.74675 X
     Occ.   17 alpha a   ---  Virt.   22 alpha a    0.73072 Y
     Occ.   17 alpha a   ---  Virt.   31 alpha a   -0.41138 X
     Occ.   17 alpha a   ---  Virt.   31 alpha a   -0.40254 Y
     Occ.   17 alpha a   ---  Virt.   45 alpha a    0.10792 X
     Occ.   17 alpha a   ---  Virt.   45 alpha a    0.10532 Y
     Occ.   15 beta  a   ---  Virt.   24 beta  a    0.13543 X
     Occ.   15 beta  a   ---  Virt.   24 beta  a    0.13540 Y
     Occ.   15 beta  a   ---  Virt.   34 beta  a    0.24423 X
     Occ.   15 beta  a   ---  Virt.   34 beta  a    0.24421 Y
     Occ.   15 beta  a   ---  Virt.   35 beta  a    0.05454 X
     Occ.   15 beta  a   ---  Virt.   35 beta  a    0.05453 Y
     Occ.   15 beta  a   ---  Virt.   50 beta  a    0.10956 X
     Occ.   15 beta  a   ---  Virt.   50 beta  a    0.10955 Y
  ----------------------------------------------------------------------------
  Root   3         a              0.178889864 a.u.                4.8678 eV 
  <S2> =   2.0095
  ----------------------------------------------------------------------------
     Transition Moments    X  0.71352   Y -0.64971   Z -0.38493
     Transition Moments   XX  0.00001  XY -0.00000  XZ -0.00000
     Transition Moments   YY  0.00000  YZ -0.00000  ZZ  0.00000
     Dipole Oscillator Strength                    0.1287279889
     Electric Quadrupole                           0.0000000000
     Magnetic Dipole                               0.0000000000
     Total Oscillator Strength                     0.1287279889

     Occ.   17 alpha a   ---  Virt.   19 alpha a   -0.93016 X
     Occ.   17 alpha a   ---  Virt.   28 alpha a    0.35486 X
     Occ.   17 alpha a   ---  Virt.   37 alpha a   -0.06181 X
  ----------------------------------------------------------------------------
  Root   4         a              0.178889864 a.u.                4.8678 eV 
  <S2> =   2.0095
  ----------------------------------------------------------------------------
     Transition Moments    X  0.72161   Y  0.74270   Z  0.08404
     Transition Moments   XX  0.00002  XY  0.00000  XZ  0.00000
     Transition Moments   YY  0.00002  YZ -0.00000  ZZ  0.00001
     Dipole Oscillator Strength                    0.1287279891
     Electric Quadrupole                           0.0000000000
     Magnetic Dipole                               0.0000000000
     Total Oscillator Strength                     0.1287279891

     Occ.   16 alpha a   ---  Virt.   19 alpha a   -0.93016 X
     Occ.   16 alpha a   ---  Virt.   28 alpha a    0.35486 X
     Occ.   16 alpha a   ---  Virt.   37 alpha a   -0.06181 X
  ----------------------------------------------------------------------------
  Root   5         a              0.219221316 a.u.                5.9653 eV 
  <S2> =   2.0077
  ----------------------------------------------------------------------------
     Transition Moments    X  0.00000   Y -0.00000   Z -0.00000
     Transition Moments   XX -2.05138  XY  0.02754  XZ  0.48435
     Transition Moments   YY  1.94349  YZ  0.65081  ZZ  0.10790
     Dipole Oscillator Strength                    0.0000000000
     Electric Quadrupole                           0.0000002613
     Magnetic Dipole                               0.0000000000
     Total Oscillator Strength                     0.0000002613

     Occ.   16 alpha a   ---  Virt.   21 alpha a   -0.68422 X
     Occ.   16 alpha a   ---  Virt.   29 alpha a   -0.16623 X
     Occ.   16 alpha a   ---  Virt.   30 alpha a    0.05336 X
     Occ.   17 alpha a   ---  Virt.   20 alpha a   -0.68422 X
     Occ.   17 alpha a   ---  Virt.   29 alpha a    0.05336 X
     Occ.   17 alpha a   ---  Virt.   30 alpha a    0.16623 X

              Target root =      1
          Target symmetry = none
      Ground state energy =  -2076.687184017075
        Excitation energy =      0.000037316933
     Excited state energy =  -2076.687146700142

  stored tddft:energy   -2076.6871467001420     

 Task  times  cpu:      134.2s     wall:      156.3s


                                NWChem Input Module
                                -------------------


 Summary of allocated global arrays
-----------------------------------
  No active global arrays


MA_summarize_allocated_blocks: starting scan ...
heap block 'gridpts', handle 67, address 0x13cbd1a8:
	type of elements:		double precision
	number of elements:		1048456221
	address of client space:	0x13cbd200
	index for client space:		13358487
	total number of bytes:		8387649864
MA_summarize_allocated_blocks: scan completed: 1 heap block, 0 stack blocks
MA usage statistics:

	allocation statistics:
					      heap	     stack
					      ----	     -----
	current number of blocks	         1	         0
	maximum number of blocks	        18	        54
	current total bytes		8387649864	         0
	maximum total bytes		8388837744	 109417544
	maximum total K-bytes		   8388838	    109418
	maximum total M-bytes		      8389	       110


                                     CITATION
                                     --------
                Please cite the following reference when publishing
                           results obtained with NWChem:

          E. Apra, E. J. Bylaska, W. A. de Jong, N. Govind, K. Kowalski,
       T. P. Straatsma, M. Valiev, H. J. J. van Dam, Y. Alexeev, J. Anchell,
       V. Anisimov, F. W. Aquino, R. Atta-Fynn, J. Autschbach, N. P. Bauman,
     J. C. Becca, D. E. Bernholdt, K. Bhaskaran-Nair, S. Bogatko, P. Borowski,
         J. Boschen, J. Brabec, A. Bruner, E. Cauet, Y. Chen, G. N. Chuev,
      C. J. Cramer, J. Daily, M. J. O. Deegan, T. H. Dunning Jr., M. Dupuis,
   K. G. Dyall, G. I. Fann, S. A. Fischer, A. Fonari, H. Fruchtl, L. Gagliardi,
      J. Garza, N. Gawande, S. Ghosh, K. Glaesemann, A. W. Gotz, J. Hammond,
       V. Helms, E. D. Hermes, K. Hirao, S. Hirata, M. Jacquelin, L. Jensen,
   B. G. Johnson, H. Jonsson, R. A. Kendall, M. Klemm, R. Kobayashi, V. Konkov,
      S. Krishnamoorthy, M. Krishnan, Z. Lin, R. D. Lins, R. J. Littlefield,
      A. J. Logsdail, K. Lopata, W. Ma, A. V. Marenich, J. Martin del Campo,
   D. Mejia-Rodriguez, J. E. Moore, J. M. Mullin, T. Nakajima, D. R. Nascimento,
    J. A. Nichols, P. J. Nichols, J. Nieplocha, A. Otero-de-la-Roza, B. Palmer,
    A. Panyala, T. Pirojsirikul, B. Peng, R. Peverati, J. Pittner, L. Pollack,
   R. M. Richard, P. Sadayappan, G. C. Schatz, W. A. Shelton, D. W. Silverstein,
   D. M. A. Smith, T. A. Soares, D. Song, M. Swart, H. L. Taylor, G. S. Thomas,
            V. Tipparaju, D. G. Truhlar, K. Tsemekhman, T. Van Voorhis,
      A. Vazquez-Mayagoitia, P. Verma, O. Villa, A. Vishnu, K. D. Vogiatzis,
        D. Wang, J. H. Weare, M. J. Williamson, T. L. Windus, K. Wolinski,
        A. T. Wong, Q. Wu, C. Yang, Q. Yu, M. Zacharias, Z. Zhang, Y. Zhao,
                                and R. J. Harrison
                        "NWChem: Past, present, and future
                         J. Chem. Phys. 152, 184102 (2020)
                               doi:10.1063/5.0004997

                                      AUTHORS
                                      -------
  E. Apra, E. J. Bylaska, N. Govind, K. Kowalski, M. Valiev, D. Mejia-Rodriguez,
       A. Kunitsa, N. P. Bauman, A. Panyala, W. A. de Jong, T. P. Straatsma,
   H. J. J. van Dam, D. Wang, T. L. Windus, J. Hammond, J. Autschbach, A. Woods,
    K. Bhaskaran-Nair, J. Brabec, K. Lopata, S. A. Fischer, S. Krishnamoorthy,
     M. Jacquelin, W. Ma, M. Klemm, O. Villa, Y. Chen, V. Anisimov, F. Aquino,
     S. Hirata, M. T. Hackler, E. Hermes, L. Jensen, J. E. Moore, J. C. Becca,
      V. Konjkov, T. Risthaus, M. Malagoli, A. Marenich, A. Otero-de-la-Roza,
        J. Mullin, P. Nichols, R. Peverati, J. Pittner, Y. Zhao, P.-D. Fan,
        A. Fonari, M. J. Williamson, R. J. Harrison, J. R. Rehr, M. Dupuis,
     D. Silverstein, D. M. A. Smith, J. Nieplocha, V. Tipparaju, M. Krishnan,
     B. E. Van Kuiken, A. Vazquez-Mayagoitia, M. Swart, Q. Wu, T. Van Voorhis,
     A. A. Auer, M. Nooijen, L. D. Crosby, E. Brown, G. Cisneros, G. I. Fann,
   H. Fruchtl, J. Garza, K. Hirao, R. A. Kendall, J. A. Nichols, K. Tsemekhman,
    K. Wolinski, J. Anchell, D. E. Bernholdt, P. Borowski, T. Clark, D. Clerc,
   H. Dachsel, M. J. O. Deegan, K. Dyall, D. Elwood, E. Glendening, M. Gutowski,
   A. C. Hess, J. Jaffe, B. G. Johnson, J. Ju, R. Kobayashi, R. Kutteh, Z. Lin,
   R. Littlefield, X. Long, B. Meng, T. Nakajima, S. Niu, L. Pollack, M. Rosing,
   K. Glaesemann, G. Sandrone, M. Stave, H. Taylor, G. Thomas, J. H. van Lenthe,
                               A. T. Wong, Z. Zhang.

 Total times  cpu:      134.2s     wall:      156.6s
