 argument  1 = /home/aditisingh4812/nw_chem/nwchem-run/nwchem-run/tddft/open/open_atom/geom-MOL-0.4/n.nw
                                         
                                         


             Northwest Computational Chemistry Package (NWChem) 7.2.3
             --------------------------------------------------------


                    Environmental Molecular Sciences Laboratory
                       Pacific Northwest National Laboratory
                                Richland, WA 99352

                              Copyright (c) 1994-2022
                       Pacific Northwest National Laboratory
                            Battelle Memorial Institute

             NWChem is an open-source computational chemistry package
                        distributed under the terms of the
                      Educational Community License (ECL) 2.0
             A copy of the license is included with this distribution
                              in the LICENSE.TXT file

                                  ACKNOWLEDGMENT
                                  --------------

            This software and its documentation were developed at the
            EMSL at Pacific Northwest National Laboratory, a multiprogram
            national laboratory, operated for the U.S. Department of Energy
            by Battelle under Contract Number DE-AC05-76RL01830. Support
            for this work was provided by the Department of Energy Office
            of Biological and Environmental Research, Office of Basic
            Energy Sciences, and the Office of Advanced Scientific Computing.


           Job information
           ---------------

    hostname        = p17
    program         = /home/aditisingh4812/nw_chem/nwchem-7.2.3-release.revision-d690e065-srconly.2024-08-27/nwchem-7.2.3/bin/LINUX64/nwchem
    date            = Thu Apr 24 11:19:22 2025

    compiled        = Mon_Apr_07_18:51:54_2025
    source          = /home/aditisingh4812/nw_chem/nwchem-7.2.3-release.revision-d690e065-srconly.2024-08-27/nwchem-7.2.3
    nwchem branch   = 7.2.3
    nwchem revision = d690e065
    ga revision     = 5.8.0
    use scalapack   = F
    input           = /home/aditisingh4812/nw_chem/nwchem-run/nwchem-run/tddft/open/open_atom/geom-MOL-0.4/n.nw
    prefix          = n.
    data base       = ./n.db
    status          = startup
    nproc           =        8
    time left       =     -1s



           Memory information
           ------------------

    heap     = 2621440000 doubles =  20000.0 Mbytes
    stack    = 2621439997 doubles =  20000.0 Mbytes
    global   = 6553600000 doubles =  50000.0 Mbytes (distinct from heap & stack)
    total    = ********** doubles =  90000.0 Mbytes
    verify   = yes
    hardfail = no 


           Directory information
           ---------------------

  0 permanent = .
  0 scratch   = .




                                NWChem Input Module
                                -------------------



 Scaling coordinates for geometry "geometry" by  1.889725989
 (inverse scale =  0.529177249)



                             Geometry "geometry" -> ""
                             -------------------------

 Output coordinates in angstroms (scale by  1.889725989 to convert to a.u.)

  No.       Tag          Charge          X              Y              Z
 ---- ---------------- ---------- -------------- -------------- --------------
    1 N                    7.0000     0.00000000     0.00000000     0.00000000

      Atomic Mass 
      ----------- 

      N                 14.003070


 Effective nuclear repulsion energy (a.u.)       0.0000000000

            Nuclear Dipole moment (a.u.) 
            ----------------------------
        X                 Y               Z
 ---------------- ---------------- ----------------
     0.0000000000     0.0000000000     0.0000000000


            XYZ format geometry
            -------------------
     1
 geometry
 N                     0.00000000     0.00000000     0.00000000



 Summary of "ao basis" -> "" (cartesian)
 ------------------------------------------------------------------------------
       Tag                 Description            Shells   Functions and Types
 ---------------- ------------------------------  ------  ---------------------
 *                        aug-cc-pVTZ                 on all atoms 


  pbe96 is a nonlocal functional; adding pw91lda local functional. 

                                 NWChem DFT Module
                                 -----------------


                      Basis "ao basis" -> "ao basis" (cartesian)
                      -----
  N (Nitrogen)
  ------------
            Exponent  Coefficients 
       -------------- ---------------------------------------------------------
  1 S  1.14200000E+04  0.000523
  1 S  1.71200000E+03  0.004045
  1 S  3.89300000E+02  0.020775
  1 S  1.10000000E+02  0.080727
  1 S  3.55700000E+01  0.233074
  1 S  1.25400000E+01  0.433501
  1 S  4.64400000E+00  0.347472
  1 S  5.11800000E-01 -0.008508

  2 S  1.14200000E+04 -0.000115
  2 S  1.71200000E+03 -0.000895
  2 S  3.89300000E+02 -0.004624
  2 S  1.10000000E+02 -0.018528
  2 S  3.55700000E+01 -0.057339
  2 S  1.25400000E+01 -0.132076
  2 S  4.64400000E+00 -0.172510
  2 S  5.11800000E-01  0.599944

  3 S  1.29300000E+00  1.000000

  4 S  1.78700000E-01  1.000000

  5 S  5.76000000E-02  1.000000

  6 P  2.66300000E+01  0.014670
  6 P  5.94800000E+00  0.091764
  6 P  1.74200000E+00  0.298683

  7 P  5.55000000E-01  1.000000

  8 P  1.72500000E-01  1.000000

  9 P  4.91000000E-02  1.000000

 10 D  1.65400000E+00  1.000000

 11 D  4.69000000E-01  1.000000

 12 D  1.51000000E-01  1.000000

 13 F  1.09300000E+00  1.000000

 14 F  3.64000000E-01  1.000000



 Summary of "ao basis" -> "ao basis" (cartesian)
 ------------------------------------------------------------------------------
       Tag                 Description            Shells   Functions and Types
 ---------------- ------------------------------  ------  ---------------------
 N                        aug-cc-pVTZ               14       55   5s4p3d2f




 Summary of "ao basis" -> "ao basis" (cartesian)
 ------------------------------------------------------------------------------
       Tag                 Description            Shells   Functions and Types
 ---------------- ------------------------------  ------  ---------------------
 N                        aug-cc-pVTZ               14       55   5s4p3d2f




                         Geometry "geometry" -> "geometry"
                         ---------------------------------

 Output coordinates in angstroms (scale by  1.889725989 to convert to a.u.)

  No.       Tag          Charge          X              Y              Z
 ---- ---------------- ---------- -------------- -------------- --------------
    1 N                    7.0000     0.00000000     0.00000000     0.00000000

      Atomic Mass 
      ----------- 

      N                 14.003070


 Effective nuclear repulsion energy (a.u.)       0.0000000000

            Nuclear Dipole moment (a.u.) 
            ----------------------------
        X                 Y               Z
 ---------------- ---------------- ----------------
     0.0000000000     0.0000000000     0.0000000000


                      Basis "ao basis" -> "ao basis" (cartesian)
                      -----
  N (Nitrogen)
  ------------
            Exponent  Coefficients 
       -------------- ---------------------------------------------------------
  1 S  1.14200000E+04  0.421209
  1 S  1.71200000E+03  0.784862
  1 S  3.89300000E+02  1.327398
  1 S  1.10000000E+02  1.998987
  1 S  3.55700000E+01  2.474876
  1 S  1.25400000E+01  2.106008
  1 S  4.64400000E+00  0.801375
  1 S  5.11800000E-01 -0.003753

  2 S  1.14200000E+04 -0.156504
  2 S  1.71200000E+03 -0.293447
  2 S  3.89300000E+02 -0.499240
  2 S  1.10000000E+02 -0.775267
  2 S  3.55700000E+01 -1.028825
  2 S  1.25400000E+01 -1.084240
  2 S  4.64400000E+00 -0.672298
  2 S  5.11800000E-01  0.447213

  3 S  1.29300000E+00  0.864190

  4 S  1.78700000E-01  0.195886

  5 S  5.76000000E-02  0.083797

  6 P  2.66300000E+01  3.432542
  6 P  5.94800000E+00  3.296915
  6 P  1.74200000E+00  2.312025

  7 P  5.55000000E-01  0.682820

  8 P  1.72500000E-01  0.158462

  9 P  4.91000000E-02  0.032945

 10 D  1.65400000E+00  3.970513

 11 D  4.69000000E-01  0.437484

 12 D  1.51000000E-01  0.060203

 13 F  1.09300000E+00  1.798249

 14 F  3.64000000E-01  0.151507



    Basis function labels
    ---------------------
       No.  Atm El Type
       ---  --- -- ----
        1    1 N  s          
        2    1 N  s          
        3    1 N  s          
        4    1 N  s          
        5    1 N  s          
        6    1 N  px         
        7    1 N  py         
        8    1 N  pz         
        9    1 N  px         
       10    1 N  py         
       11    1 N  pz         
       12    1 N  px         
       13    1 N  py         
       14    1 N  pz         
       15    1 N  px         
       16    1 N  py         
       17    1 N  pz         
       18    1 N  dxx        
       19    1 N  dxy        
       20    1 N  dxz        
       21    1 N  dyy        
       22    1 N  dyz        
       23    1 N  dzz        
       24    1 N  dxx        
       25    1 N  dxy        
       26    1 N  dxz        
       27    1 N  dyy        
       28    1 N  dyz        
       29    1 N  dzz        
       30    1 N  dxx        
       31    1 N  dxy        
       32    1 N  dxz        
       33    1 N  dyy        
       34    1 N  dyz        
       35    1 N  dzz        
       36    1 N  fxxx       
       37    1 N  fxxy       
       38    1 N  fxxz       
       39    1 N  fxyy       
       40    1 N  fxyz       
       41    1 N  fxzz       
       42    1 N  fyyy       
       43    1 N  fyyz       
       44    1 N  fyzz       
       45    1 N  fzzz       
       46    1 N  fxxx       
       47    1 N  fxxy       
       48    1 N  fxxz       
       49    1 N  fxyy       
       50    1 N  fxyz       
       51    1 N  fxzz       
       52    1 N  fyyy       
       53    1 N  fyyz       
       54    1 N  fyzz       
       55    1 N  fzzz       
  int_init: cando_txs set to always be  F

 Schwarz integral screening summary 
 ---------------------------------- 

        No. of atom pairs =       1
       No. of shell pairs =     105

 Atomic screening 

   value      no.     value      no.     value      no.     value      no.   
  -------- ------    -------- ------    -------- ------    -------- ------   
  0.00D+00      0    1.00D-13      0    1.00D-12      0    1.00D-11      0
  1.00D-10      0    1.00D-09      0    1.00D-08      0    1.00D-07      0
  1.00D-06      0    1.00D-05      0    1.00D-04      0    1.00D-03      0
  1.00D-02      0    1.00D-01      0    1.00D+00      1    1.00D+01      0


 Shell screening 

   value      no.     value      no.     value      no.     value      no.   
  -------- ------    -------- ------    -------- ------    -------- ------   
  0.00D+00      0    1.00D-13      0    1.00D-12      0    1.00D-11      0
  1.00D-10      0    1.00D-09      0    1.00D-08      0    1.00D-07      0
  1.00D-06      0    1.00D-05      0    1.00D-04      0    1.00D-03      0
  1.00D-02      5    1.00D-01     32    1.00D+00     68    1.00D+01      0


  Caching 1-el integrals 
  atom                     1  - neighbor  & S                     1   10.000000000000000       exp AB    4.9100000000000039E-002   4.9100000000000039E-002
 zmins =     0.049100000    0.049100000 lprod =   2 range =        15.88 acc   0.10D-07
 sh     0.000000000
  Center:                     1  Radial Pts. & Wghts. 
    1        0.000004392           2.5408933E-16
    2        0.000035133           6.5047751E-14
    3        0.000118574           1.6671642E-12
    4        0.000281070           1.6654035E-11
    5        0.000548982           9.9277538E-11
    6        0.000948682           4.2695067E-10
    7        0.001506565           1.4657473E-09
    8        0.002249051           4.2671431E-09
    9        0.003202600           1.0953185E-08
   10        0.004393719           2.5458276E-08
   11        0.005848980           5.4607188E-08
   12        0.007595032           1.0962092E-07
   13        0.009658617           2.0815477E-07
   14        0.012066589           3.7698668E-07
   15        0.014845933           6.5548869E-07
   16        0.018023789           1.1000308E-06
   17        0.021627471           1.7894843E-06
   18        0.025684495           2.8320118E-06
   19        0.030222604           4.3733531E-06
   20        0.035269800           6.6068434E-06
   21        0.040854371           9.7854255E-06
   22        0.047004928           1.4235953E-05
   23        0.053750435           2.0376121E-05
   24        0.061120253           2.8734394E-05
   25        0.069144176           3.9973361E-05
   26        0.077852475           5.4917003E-05
   27        0.087275942           7.4582409E-05
   28        0.097445944           1.0021657E-04
   29        0.108394467           1.3333896E-04
   30        0.120154180           1.7579068E-04
   31        0.132758485           2.2979117E-04
   32        0.146241589           2.9800345E-04
   33        0.160638565           3.8360913E-04
   34        0.175985428           4.9039465E-04
   35        0.192319209           6.2285029E-04
   36        0.209678041           7.8628380E-04
   37        0.228101246           9.8695084E-04
   38        0.247629431           1.2322047E-03
   39        0.268304592           1.5306682E-03
   40        0.290170221           1.8924310E-03
   41        0.313271429           2.3292764E-03
   42        0.337655075           2.8549422E-03
   43        0.363369901           3.4854206E-03
   44        0.390466688           4.2393041E-03
   45        0.418998419           5.1381837E-03
   46        0.449020454           6.2071091E-03
   47        0.480590727           7.4751205E-03
   48        0.513769959           8.9758641E-03
   49        0.548621885           1.0748306E-02
   50        0.585213510           1.2837561E-02
   51        0.623615386           1.5295856E-02
   52        0.663901918           1.8183655E-02
   53        0.706151698           2.1570971E-02
   54        0.750447879           2.5538904E-02
   55        0.796878581           3.0181440E-02
   56        0.845537351           3.5607574E-02
   57        0.896523664           4.1943805E-02
   58        0.949943486           4.9337095E-02
   59        1.005909907           5.7958365E-02
   60        1.064543837           6.8006661E-02
   61        1.125974803           7.9714119E-02
   62        1.190341834           9.3351911E-02
   63        1.257794466           1.0923738E-01
   64        1.328493882           1.2774264E-01
   65        1.402614201           1.4930500E-01
   66        1.480343954           1.7443962E-01
   67        1.561887773           2.0375494E-01
   68        1.647468327           2.3797166E-01
   69        1.737328562           2.7794605E-01
   70        1.831734290           3.2469894E-01
   71        1.930977206           3.7945175E-01
   72        2.035378414           4.4367171E-01
   73        2.145292570           5.1912888E-01
   74        2.261112788           6.0796866E-01
   75        2.383276452           7.1280448E-01
   76        2.512272189           8.3683752E-01
   77        2.648648252           9.8401228E-01
   78        2.793022694           1.1592211E+00
   79        2.946095796           1.3685750E+00
   80        3.108665403           1.6197676E+00
   81        3.281645983           1.9225676E+00
   82        3.466092599           2.2894970E+00
   83        3.663231349           2.7367750E+00
   84        3.874498530           3.2856557E+00
   85        4.101591682           3.9643545E+00
   86        4.346537118           4.8108776E+00
   87        4.611780809           5.8772693E+00
   88        4.900312985           7.2361443E+00
   89        5.215842725           8.9910212E+00
   90        5.563048689           1.1293199E+01
   91        5.947949695           1.4370369E+01
   92        6.378471201           1.8577300E+01
   93        6.865346859           2.4490456E+01
   94        7.423625228           3.3096309E+01
   95        8.075345845           4.6197236E+01
   96        8.854677270           6.7381053E+01
   97        9.818861635           1.0467955E+02
   98       11.075208207           1.7944906E+02
   99       12.864630205           3.6694932E+02
  100       15.955862392           1.1404872E+03
     irreducible set of Lebedev Angular points ;
  0.009523809523810  1.000000000000000  0.000000000000000  0.000000000000000
  0.032142857142857  0.577350269189626  0.577350269189626  0.577350269189626
  0.028571428571429  0.459700843380983  0.000000000000000  0.888073833977115
   total no. of   reducible points:  38; test:  1.00000000
  0.012698412698413  1.000000000000000  0.000000000000000  0.000000000000000
  0.022574955908289  0.707106781186547  0.707106781186547  0.000000000000000
  0.021093750000000  0.577350269189626  0.577350269189626  0.577350269189626
  0.020173335537919  0.301511344577764  0.301511344577764  0.904534033733291
   total no. of   reducible points:  50; test:  1.00000000
  0.000513067179734  1.000000000000000  0.000000000000000  0.000000000000000
  0.016604069565742  0.707106781186547  0.707106781186547  0.000000000000000
 -0.029586038961039  0.577350269189626  0.577350269189626  0.577350269189626
  0.026576207082159  0.480384461415261  0.480384461415261  0.733799385705343
  0.016522170993716  0.320772648980776  0.000000000000000  0.947156221362588
   total no. of   reducible points:  74; test:  1.00000000
  0.011544011544012  1.000000000000000  0.000000000000000  0.000000000000000
  0.011943909085856  0.577350269189626  0.577350269189626  0.577350269189626
  0.011110555710603  0.369602846454150  0.369602846454150  0.852518311701268
  0.011876501294537  0.694354006602666  0.694354006602666  0.189063552885395
  0.011812303746904  0.374243039090341  0.000000000000000  0.927330657151172
   total no. of   reducible points:  86; test:  1.00000000
  0.003828270494937  1.000000000000000  0.000000000000000  0.000000000000000
  0.009793737512488  0.577350269189626  0.577350269189626  0.577350269189626
  0.008211737283191  0.185115635344736  0.185115635344736  0.965124035086594
  0.009942814891178  0.690421048382292  0.690421048382292  0.215957291845848
  0.009595471336071  0.395689473055942  0.395689473055942  0.828769981252592
  0.009694996361663  0.478369028812150  0.000000000000000  0.878158910604066
   total no. of   reducible points: 110; test:  1.00000000
  0.000599631368862  1.000000000000000  0.000000000000000  0.000000000000000
  0.007372999718621  0.707106781186547  0.707106781186547  0.000000000000000
  0.007210515360144  0.577350269189626  0.577350269189626  0.577350269189626
  0.007116355493118  0.676441040011426  0.676441040011426  0.291298882209527
  0.006753829486314  0.417496122796545  0.417496122796545  0.807089818359583
  0.007574394159054  0.157467667203908  0.157467667203908  0.974888643677173
  0.006991087353303  0.140355381171318  0.449332832326956  0.882270011260323
   total no. of   reducible points: 146; test:  1.00000000
  0.005544842902037  1.000000000000000  0.000000000000000  0.000000000000000
  0.006071332770671  0.707106781186547  0.707106781186547  0.000000000000000
  0.006383674773515  0.577350269189626  0.577350269189626  0.577350269189626
  0.005183387587748  0.255125262111413  0.255125262111413  0.932642590312691
  0.006317929009814  0.674360146036277  0.674360146036277  0.300793595137701
  0.006201670006589  0.431891069671941  0.431891069671941  0.791795559393492
  0.005477143385137  0.261393136033599  0.000000000000000  0.965232421976448
  0.005968383987681  0.499045316179604  0.144663074432512  0.854415804684659
   total no. of   reducible points: 170; test:  1.00000000
  0.001782340447245  1.000000000000000  0.000000000000000  0.000000000000000
  0.005716905949977  0.707106781186547  0.707106781186547  0.000000000000000
  0.005573383178849  0.577350269189626  0.577350269189626  0.577350269189626
  0.005608704082588  0.671297344269523  0.671297344269523  0.314196994182586
  0.005158237711805  0.289246562757544  0.289246562757544  0.912509096867474
  0.005518771467274  0.444693317871744  0.444693317871744  0.777493219314767
  0.004106777028169  0.129933544765007  0.129933544765007  0.982972302707253
  0.005051846064615  0.345770219761128  0.000000000000000  0.938319218137592
  0.005530248916233  0.159041710538353  0.836036015482459  0.525118572443642
   total no. of   reducible points: 194; test:  1.00000000
 -0.055226399197273  1.000000000000000  0.000000000000000  0.000000000000000
  0.004450274607445  0.577350269189626  0.577350269189626  0.577350269189626
  0.004496841067921  0.449204468739761  0.449204468739761  0.772289253148364
  0.005049153450479  0.252041949021020  0.252041949021020  0.934317778845812
  0.003976408018052  0.698190665844724  0.698190665844724  0.158302205463478
  0.004401400650381  0.658740524346096  0.658740524346096  0.363485684956727
  0.017245443505444  0.040385440500977  0.040385440500977  0.998367683967727
  0.004231083095357  0.582384230971558  0.000000000000000  0.812913653173365
  0.005198069864064  0.354587739051869  0.000000000000000  0.935022745880593
  0.004695720972569  0.227218180899819  0.486466153588665  0.843636521068894
   total no. of   reducible points: 230; test:  1.00000000
 -0.001313769127327  1.000000000000000  0.000000000000000  0.000000000000000
 -0.002522728704859  0.707106781186547  0.707106781186547  0.000000000000000
  0.004186853881701  0.577350269189626  0.577350269189626  0.577350269189626
  0.005315167977811  0.703937339158548  0.703937339158548  0.094575076403713
  0.004047142377086  0.101252624857241  0.101252624857241  0.989694807462905
  0.004112482394407  0.464744872642054  0.464744872642054  0.753673939250816
  0.003595584899759  0.327742065497163  0.327742065497163  0.886098344997499
  0.004256131351428  0.662033866369997  0.662033866369997  0.351315128564633
  0.004229582700647  0.850650808352040  0.000000000000000  0.525731112119134
  0.004080914225781  0.323348454269290  0.115311201100970  0.939227929749916
  0.004071467593831  0.231479015871260  0.524493924092236  0.819343388819120
   total no. of   reducible points: 266; test:  1.00000000
  0.000854591172513  1.000000000000000  0.000000000000000  0.000000000000000
  0.003599119285026  0.577350269189626  0.577350269189626  0.577350269189626
  0.003449788424306  0.351564034557011  0.351564034557011  0.867643624544083
  0.003604822601420  0.656632941021961  0.656632941021961  0.371034178384821
  0.003576729661743  0.472905413258100  0.472905413258100  0.743452042987556
  0.002352101413689  0.096183085226148  0.096183085226148  0.990705621379408
  0.003108953122414  0.221964523629418  0.221964523629418  0.949454317226443
  0.003650045807677  0.701176641608955  0.701176641608955  0.129238672710514
  0.002982344963172  0.264415288706066  0.000000000000000  0.964408914879206
  0.003600820932216  0.571895589187896  0.000000000000000  0.820326419827759
  0.003571540554273  0.251003475177047  0.800072749407395  0.544867737258077
  0.003392312205006  0.123354853258333  0.412772408316853  0.902442529533000
   total no. of   reducible points: 302; test:  1.00000000
  0.003006796749454  1.000000000000000  0.000000000000000  0.000000000000000
  0.003050627745651  0.577350269189626  0.577350269189626  0.577350269189626
  0.001621104600289  0.706896546391232  0.706896546391232  0.024383301669356
  0.003005701484902  0.479468262571203  0.479468262571203  0.734996850587746
  0.002990992529654  0.192753315487802  0.192753315487802  0.962129055136014
  0.002982170644108  0.693035796132712  0.693035796132712  0.198501311223365
  0.002721564237311  0.360830211552009  0.360830211552009  0.860001812127547
  0.003033513795811  0.649848616149617  0.649848616149617  0.394199888605839
  0.003007949555219  0.193294501323034  0.000000000000000  0.981140782843257
  0.002881964603055  0.380049491989930  0.000000000000000  0.924966152698679
  0.002958357626536  0.289955882549957  0.793453785658232  0.535123047718276
  0.003036020026407  0.096841214551040  0.828080150668686  0.552182074349399
  0.002832187403926  0.183343464704166  0.907465826530513  0.378009189874487
   total no. of   reducible points: 350; test:  1.00000000
  0.000526589796822  1.000000000000000  0.000000000000000  0.000000000000000
  0.002548219972003  0.707106781186547  0.707106781186547  0.000000000000000
  0.002512317418927  0.577350269189626  0.577350269189626  0.577350269189626
  0.002530403801186  0.690934630750911  0.690934630750911  0.212646824707552
  0.002014279020919  0.177483605460916  0.177483605460916  0.967987158791473
  0.002501725168403  0.491434263778475  0.491434263778475  0.719016501040843
  0.002513267174598  0.645666470742426  0.645666470742426  0.407712664897770
  0.002302694782227  0.286128901030764  0.286128901030764  0.914472801120872
  0.001462495621595  0.075680843671780  0.075680843671780  0.994255912631278
  0.002445373437313  0.392725976336800  0.392725976336800  0.831584400419232
  0.002417442375639  0.881813287779429  0.000000000000000  0.471598691151316
  0.001910951282180  0.977642811118265  0.000000000000000  0.210272522857307
  0.002416930044325  0.205482369640304  0.868946032287241  0.450233038258263
  0.002512236854563  0.590515704892527  0.799927854385729  0.106801826075805
  0.002496644054553  0.555015236107681  0.771746262691590  0.310428403516654
  0.002236607760438  0.937180985855372  0.334436314534346  0.099217696364292
   total no. of   reducible points: 434; test:  1.00000000
  0.000309512129531  1.000000000000000  0.000000000000000  0.000000000000000
  0.001852379698597  0.577350269189626  0.577350269189626  0.577350269189626
  0.001871790639278  0.704095493822747  0.704095493822747  0.092190407076898
  0.001858812585438  0.680774406645524  0.680774406645524  0.270356088359165
  0.001852028828296  0.637254693925875  0.637254693925875  0.433373868777154
  0.001846715956151  0.504441970780036  0.504441970780036  0.700768575373573
  0.001818471778163  0.421576178401097  0.421576178401097  0.802836877335274
  0.001749564657281  0.331792073647212  0.331792073647212  0.883078727934133
  0.001617210647254  0.238473670142189  0.238473670142189  0.941414158220403
  0.001384737234852  0.145903644915776  0.145903644915776  0.978480583762694
  0.000976433116505  0.060950341155072  0.060950341155072  0.996278129754016
  0.001857161196774  0.611684344200988  0.000000000000000  0.791101929626902
  0.001705153996396  0.396475534819986  0.000000000000000  0.918045287711454
  0.001300321685886  0.172478200990772  0.000000000000000  0.985013335028002
  0.001842866472905  0.561026380862206  0.351828092773352  0.749310611904116
  0.001802658934377  0.474239284255198  0.263471665593795  0.840047488359050
  0.001849830560444  0.598412649788538  0.181664084036021  0.780320742479920
  0.001713904507107  0.379103540769556  0.172079522565688  0.909213475092374
  0.001555213603397  0.277867319058624  0.082130215819325  0.957102074310073
  0.001802239128009  0.503356427107512  0.089992058420749  0.859379855890721
   total no. of   reducible points: 590; test:  1.00000000
  0.000219294208818  1.000000000000000  0.000000000000000  0.000000000000000
  0.001436433617319  0.707106781186547  0.707106781186547  0.000000000000000
  0.001421940344336  0.577350269189626  0.577350269189626  0.577350269189626
  0.000679812351105  0.050872044105024  0.050872044105024  0.997408677652823
  0.000991318423529  0.122819879017883  0.122819879017883  0.984799753572301
  0.001180207833239  0.202689081440879  0.202689081440879  0.958036675983391
  0.001296599602081  0.284774515646429  0.284774515646429  0.915317950483155
  0.001365871427428  0.365671907897803  0.365671907897803  0.855901928697887
  0.001402988604775  0.442826488671347  0.442826488671347  0.779621319527635
  0.001418645563596  0.514061962724974  0.514061962724974  0.686644447264154
  0.001421376741852  0.630640121916680  0.630640121916680  0.452311920313658
  0.001423996475491  0.671688333202261  0.671688333202261  0.312521305001653
  0.001431554042179  0.697979268533688  0.697979268533688  0.160155803498829
  0.000925440149987  0.144686567419531  0.000000000000000  0.989477537495599
  0.001250239995054  0.339026347541122  0.000000000000000  0.940776878793759
  0.001394365843329  0.533580465126351  0.000000000000000  0.845749305193653
  0.001127089094672  0.069440243933494  0.235518789424233  0.969385863498432
  0.001345753760911  0.226900410952946  0.410218247404573  0.883310360522113
  0.001424957283317  0.080255746077753  0.621430241748161  0.779348105702661
  0.001261523341238  0.146799952789657  0.324528434571739  0.934414827052402
  0.001392547106053  0.157150776982473  0.522448218969663  0.838064133458312
  0.001418761677878  0.236570299315725  0.601754663408956  0.762840624604670
  0.001338366684480  0.077148158667657  0.434657551614116  0.897285336132833
  0.001393700862676  0.306293666621073  0.490882658903762  0.815609223203975
  0.001415914757467  0.382247737952479  0.564876814909950  0.731300793659766
   total no. of   reducible points: 770; test:  1.00000000
  0.000143829419053  1.000000000000000  0.000000000000000  0.000000000000000
  0.001125772288287  0.577350269189626  0.577350269189626  0.577350269189626
  0.000494802934195  0.042929635453413  0.042929635453413  0.998155345023847
  0.000735799010913  0.105142685408640  0.105142685408640  0.988883224354686
  0.000888913277130  0.175002486762309  0.175002486762309  0.968890220434707
  0.000988834783892  0.247765337965026  0.247765337965026  0.936602730407163
  0.001053299681709  0.320656712395596  0.320656712395596  0.891267942647606
  0.001092778807015  0.391652074984998  0.391652074984998  0.832596723702352
  0.001114389394063  0.459082587418762  0.459082587418762  0.760582905315251
  0.001123724788052  0.521456388841586  0.521456388841586  0.675400969108414
  0.001125239325244  0.625317024465420  0.625317024465420  0.466858905695743
  0.001126153271816  0.663792674452317  0.663792674452317  0.344613654237438
  0.001130286931124  0.691041039849830  0.691041039849830  0.211954151850184
  0.001134986534364  0.705290700745776  0.705290700745776  0.071624401449956
  0.000682336792711  0.123668676265799  0.000000000000000  0.992323565431490
  0.000945415816045  0.294077711446839  0.000000000000000  0.955781512496548
  0.001074429975386  0.469775384920765  0.000000000000000  0.882785980701182
  0.001129300086569  0.633456324113957  0.000000000000000  0.773778447257375
  0.000843688450090  0.059740486141813  0.202912875277752  0.977372722845310
  0.001075255720449  0.137576040847364  0.460262194248405  0.877058461865803
  0.001108577236864  0.339101652633629  0.503067399966204  0.794942299964208
  0.000956647532378  0.127167519143982  0.281760642244213  0.951020169374390
  0.001080663250717  0.269312074041351  0.433156129172016  0.860143461601762
  0.001126797131196  0.141978645260192  0.625616735858081  0.767102186220558
  0.001022568715358  0.067092846007383  0.379839521685916  0.922616110730809
  0.001108960267713  0.070577381832562  0.551750542142352  0.831017552413474
  0.001122790653436  0.278388847788215  0.602961915615919  0.747620610834086
  0.001032401847117  0.197957893891741  0.358960632958910  0.912118378409121
  0.001107249382284  0.208730706110327  0.534866643813548  0.818748536281022
  0.001121780048520  0.405512213787284  0.567499754607437  0.716591845467024
   total no. of   reducible points: 974; test:  1.00000000
  0.000110518923327  1.000000000000000  0.000000000000000  0.000000000000000
  0.000920523273809  0.707106781186547  0.707106781186547  0.000000000000000
  0.000913315978644  0.577350269189626  0.577350269189626  0.577350269189626
  0.000369042189802  0.037126364496571  0.037126364496571  0.998620681799919
  0.000560399092868  0.091400604122622  0.091400604122622  0.991610739722014
  0.000686529762928  0.153107785246991  0.153107785246991  0.976276606394685
  0.000772033855115  0.218092889166061  0.218092889166061  0.951247067480579
  0.000830154595889  0.283987453220018  0.283987453220018  0.915806886208668
  0.000868669255018  0.349117760096376  0.349117760096376  0.869616915181954
  0.000892707628585  0.412143146144431  0.412143146144431  0.812573722299916
  0.000906082023857  0.471899362714913  0.471899362714913  0.744729469632107
  0.000911977725494  0.527314545284234  0.527314545284234  0.666242253736104
  0.000912872013860  0.620947533244402  0.620947533244402  0.478380938076952
  0.000913071493569  0.656972271185729  0.656972271185729  0.369830866459426
  0.000915287378455  0.684178830907014  0.684178830907014  0.252583955700718
  0.000918743627432  0.701260433012363  0.701260433012363  0.128326186659723
  0.000517697731297  0.107238221547817  0.000000000000000  0.994233354821322
  0.000733114368210  0.258206895949697  0.000000000000000  0.966089643296119
  0.000846323283638  0.417275295530672  0.000000000000000  0.908780131681911
  0.000903112269425  0.570036691179250  0.000000000000000  0.821619237061433
  0.000648577845316  0.982798601826395  0.177177402261533  0.052106394770113
  0.000743503091098  0.962424923032623  0.247571646342629  0.111564095715648
  0.000799852789184  0.940200799412881  0.335461628906649  0.059058888532354
  0.000810173149747  0.932082204014320  0.317361524661198  0.174655167757863
  0.000848338957459  0.904367419939330  0.409026842708536  0.121723505109599
  0.000855629925731  0.891240756007475  0.385429115066922  0.239027847938172
  0.000880320867974  0.867643562846271  0.493222118485128  0.062662506241542
  0.000881104818243  0.858197998604162  0.478532067592243  0.185750519454734
  0.000885028234127  0.839675362404986  0.450742259315706  0.302946697352898
  0.000902134229904  0.816528856402219  0.563212302076210  0.126777480068428
  0.000901009167711  0.801546937078353  0.543430356969390  0.249411216236224
  0.000902269293843  0.777356306907035  0.512351848641987  0.364983226059765
  0.000915801617469  0.766162121390039  0.639427963474910  0.064245492242208
  0.000913157800319  0.755358414353351  0.626980550902439  0.190601822277923
  0.000910781357948  0.734430575755950  0.603116169309631  0.311227594714961
  0.000910576025897  0.704383718402177  0.569370249846844  0.423864478152234
   total no. of   reducible points:1202; test:  1.00000000
  0.000077771607433  1.000000000000000  0.000000000000000  0.000000000000000
  0.000755764641300  0.577350269189626  0.577350269189626  0.577350269189626
  0.000284163380609  0.032292906634139  0.032292906634139  0.998956623864238
  0.000437441912705  0.080367332714622  0.080367332714622  0.993520097262594
  0.000541717474087  0.135428996053165  0.135428996053165  0.981487633165117
  0.000614800089136  0.193896386111443  0.193896386111443  0.961669580940275
  0.000666439448580  0.253734371501127  0.253734371501127  0.933401166400522
  0.000702503935692  0.313525143475257  0.313525143475257  0.896328047546008
  0.000726851178925  0.372155833937534  0.372155833937534  0.850294108254619
  0.000742263753421  0.428680957519570  0.428680957519570  0.795276853253136
  0.000750954503584  0.482251012828299  0.482251012828299  0.731346649169981
  0.000754853505772  0.532067933356626  0.532067933356626  0.658640591360127
  0.000755408896977  0.617299819539427  0.617299819539427  0.487731345715221
  0.000755314717444  0.651067984912748  0.651067984912748  0.390155043595885
  0.000756476765329  0.677731525168736  0.677731525168736  0.285236672931301
  0.000758799180852  0.696310941064874  0.696310941064874  0.174075117999957
  0.000760826183203  0.705893500983175  0.705893500983175  0.058555363028785
  0.000402168044787  0.995554619409186  0.000000000000000  0.094185985013862
  0.000580487179395  0.973411590179421  0.000000000000000  0.229063039585986
  0.000679215195595  0.927569373238863  0.000000000000000  0.373650983980055
  0.000733674121129  0.856802242279510  0.000000000000000  0.515645147000147
  0.000758186630099  0.762349555371937  0.000000000000000  0.647165477620840
  0.000753825785980  0.570752290889222  0.438702803988950  0.694104943230444
  0.000748351724705  0.519646338840308  0.385890841476262  0.762270254565011
  0.000737176366111  0.464633753121535  0.330193737234385  0.821637128756598
  0.000718344889576  0.406390169755769  0.272542357356378  0.872105322408083
  0.000689581552982  0.345632946664309  0.213951023749525  0.913653558859526
  0.000648010580179  0.283139512105033  0.155592230978665  0.946373644151191
  0.000589755889659  0.219768202292533  0.098928789796861  0.970523071240677
  0.000509570884925  0.156469609865035  0.045986429106755  0.986611630545015
  0.000753690642891  0.602735667372129  0.337662514017343  0.722975616397235
  0.000747250596558  0.549603232025510  0.282230130972799  0.786309379645309
  0.000734301713228  0.492170775523457  0.224863234259254  0.840954489612314
  0.000713087158218  0.430942299859848  0.166622472345648  0.886862833757808
  0.000681702203211  0.366410818231367  0.108696490182217  0.924082347686118
  0.000638094114560  0.299018905775844  0.052519897841201  0.952800794667682
  0.000755038137792  0.626872401314500  0.229752365755002  0.744476220506856
  0.000747864664014  0.570732414483461  0.172308060709380  0.802853936449496
  0.000733591872060  0.509636090196037  0.114023846539051  0.852801042441985
  0.000711012052766  0.443872993831246  0.056115220958825  0.894330949550573
  0.000757136397869  0.641997847108239  0.116417442314087  0.757816431224233
  0.000748990832908  0.581721806180261  0.057975895314452  0.811319009870262
   total no. of   reducible points:1454; test:  1.00000000
  qrot: 

              1        2        3      
    1    1.0000   0.0000   0.0000
    2    0.0000   1.0000   0.0000
    3    0.0000   0.0000   1.0000
  me                     0   done genpts
  me                     2   done genpts
  me                     3   done genpts
  me                     4   done genpts
  me                     5   done genpts
  me                     6   done genpts
  me                     7   done genpts
  me                     1   done genpts
  me                     0   done uprt
  me                     1   done uprt
  me                     2   done uprt
  me                     3   done uprt
  me                     4   done uprt
  me                     5   done uprt
  me                     6   done uprt
  me                     7   done uprt
  me                     0  done mem
  me                     1  done mem
  me                     2  done mem
  me                     3  done mem
  me                     4  done mem
  me                     5  done mem
  me                     6  done mem
  me                     7  done mem
  dftinpanae: itol2e                     8  iaoacc                    14  tol_rho    1.0000000000000000E-010

            General Information
            -------------------
          SCF calculation type: DFT
          Wavefunction type:  spin polarized.
          No. of atoms     :     1
          No. of electrons :     7
           Alpha electrons :     5
            Beta electrons :     2
          Charge           :     0
          Spin multiplicity:     4
          Use of symmetry is: off; symmetry adaption is: off
          Maximum number of iterations:  50
          AO basis - number of functions:    55
                     number of shells:    14
          Convergence on energy requested:  1.00D-06
          Convergence on density requested:  1.00D-05
          Convergence on gradient requested:  5.00D-04

              XC Information
              --------------
                     Hartree-Fock (Exact) Exchange  1.000          
                     LC-wPBE(h)Exchange Functional  1.000          
            Perdew 1991 LDA Correlation Functional  1.000 local    
           PerdewBurkeErnz. Correlation Functional  1.000 non-local

           Range-Separation Parameters        
           ---------------------------
           Alpha           :  0.00
           Beta            :  1.00
           Gamma           :  0.40
           Short-Range HF  :     F

             Grid Information
             ----------------
          Grid used for XC integration:  xfine     
          Radial quadrature: Mura-Knowles        
          Angular quadrature: Lebedev. 
          Tag              B.-S. Rad. Rad. Pts. Rad. Cut. Ang. Pts.
          ---              ---------- --------- --------- ---------
          N                   0.65      100           8.0      1454
          Grid pruning is: on 
          Number of quadrature shells:   100
          Spatial weights used:  Erf1

          Convergence Information
          -----------------------
          Convergence aids based upon iterative change in 
          total energy or number of iterations. 
          Levelshifting, if invoked, occurs when the 
          HOMO/LUMO gap drops below (HL_TOL):  1.00D-02
          DIIS, if invoked, will attempt to extrapolate 
          using up to (NFOCK): 10 stored Fock matrices.

                    Damping( 0%)  Levelshifting(0.5)       DIIS
                  --------------- ------------------- ---------------
          dE  on:    start            ASAP                start   
          dE off:    2 iters         50 iters            50 iters 


      Screening Tolerance Information
      -------------------------------
          Density screening/tol_rho:  1.00D-10
          AO Gaussian exp screening on grid/accAOfunc:  14
          CD Gaussian exp screening on grid/accCDfunc:  20
          XC Gaussian exp screening on grid/accXCfunc:  20
          Schwarz screening/accCoul:  1.00D-08



                         Geometry "geometry" -> "geometry"
                         ---------------------------------

 Output coordinates in angstroms (scale by  1.889725989 to convert to a.u.)

  No.       Tag          Charge          X              Y              Z
 ---- ---------------- ---------- -------------- -------------- --------------
    1 N                    7.0000     0.00000000     0.00000000     0.00000000

      Atomic Mass 
      ----------- 

      N                 14.003070


 Effective nuclear repulsion energy (a.u.)       0.0000000000

            Nuclear Dipole moment (a.u.) 
            ----------------------------
        X                 Y               Z
 ---------------- ---------------- ----------------
     0.0000000000     0.0000000000     0.0000000000

  
  CAM type calculations without CDFIT are
  only available with the direct option.
  Forcing Direct SCF
  


     <<<<<<    Before call to DFT_SCF.    >>>>>>
     <<<<<< date:  Apr 24  time: 11:19:22 >>>>>>


 Setting tolerance for linear dependence to 1.00D-05


 Setting tolerance for linear dependence to 1.00D-05

 Setting tolerance for linear dependence to 1.00D-05

 Setting tolerance for linear dependence to 1.00D-05

 Setting tolerance for linear dependence to 1.00D-05

 Setting tolerance for linear dependence to 1.00D-05

 Setting tolerance for linear dependence to 1.00D-05
 Setting tolerance for linear dependence to 1.00D-05
  lindep tolerance =    1.0000000000000001E-005
  lindep tolerance =    1.0000000000000001E-005
  lindep tolerance =    1.0000000000000001E-005
  lindep tolerance =    1.0000000000000001E-005
  lindep tolerance =    1.0000000000000001E-005
  lindep tolerance =    1.0000000000000001E-005
  lindep tolerance =    1.0000000000000001E-005
  lindep tolerance =    1.0000000000000001E-005


     <<<<<<    Before 3c-2e initialize.   >>>>>>
     <<<<<< date:  Apr 24  time: 11:19:22 >>>>>>


 Setting fock-build task_bf   :      -1
                    maxquartet:   10000
                    maxeri    :  129600
                    maxscr    :       0
                    intacc    : 0.0D+00
                    denscreen : T
                    dentol    : 1.0D-06


      Superposition of Atomic Density Guess
      -------------------------------------

 Sum of atomic energies:         -54.31017225

      Non-variational initial energy
      ------------------------------

 Total energy =     -53.827581
 1-e energy   =     -73.818344
 2-e energy   =      19.990763
 HOMO         =      -0.205426
 LUMO         =      -0.205426


 Setting fock-build task_bf   :      -1
                    maxquartet:   10000
                    maxeri    :  129600
                    maxscr    :       0
                    intacc    : 0.0D+00
                    denscreen : T
                    dentol    : 1.0D-06


 Wrote molecular orbitals to ./n.movecs

  WARNING: movecs_in_org=atomic not equal to movecs_in=./n.movecs
   Time after variat. SCF:      0.3

 Setting fock-build task_bf   :      -1
                    maxquartet:   10000
                    maxeri    :  129600
                    maxscr    :       0
                    intacc    : 0.0D+00
                    denscreen : T
                    dentol    : 1.0D-06

   Time prior to 1st pass:      0.3


     <<<<<<      Before SCF iter loop.    >>>>>>
     <<<<<< date:  Apr 24  time: 11:19:22 >>>>>>

           DAMPING=T LEVELSHIFTING=F DIISING=T
          itol2e= 8 iAOacc=12 iXCacc=20


     <<<<<<            calling 1-e int    >>>>>>
     <<<<<< date:  Apr 24  time: 11:19:22 >>>>>>

    Kinetic Matrix Time:          0.0s

           Kinetic energy =     53.396428031467

    Potential Matrix Time:          0.0s


     <<<<<<    Before call to GETVXC.     >>>>>>
     <<<<<< date:  Apr 24  time: 11:19:22 >>>>>>



     <<<<<<    Before call to fock_2e.    >>>>>>
     <<<<<< date:  Apr 24  time: 11:19:22 >>>>>>



     <<<<<<     After call to fock_2e.    >>>>>>
     <<<<<< date:  Apr 24  time: 11:19:22 >>>>>>

    Fock_2e Build Time:          0.2s
  *** grid_quadv0:                    calc_type:                    1
  *** grid_quadv0:                    grid_written: F
  *** grid_quadv0:                    grad: T
  *** grid_quadv0:                    kske: F
  *** grid_quadv0:                    kslap: F
  *** grid_quadv0:                    do_scf: T
  *** grid_quadv0:                    fde_option:                    0
  *** grid_quadv0:                    n_per_rec:                 3070
  *** grid_quadv0:                    calc_type:                    1
  *** grid_quadv0:                    grid_written: F
  *** grid_quadv0:                    grad: T
  *** grid_quadv0:                    kske: F
  *** grid_quadv0:                    kslap: F
  *** grid_quadv0:                    do_scf: T
  *** grid_quadv0:                    fde_option:                    0
  *** grid_quadv0:                    n_per_rec:                 3070
  *** grid_quadv0:                    calc_type:                    1
  *** grid_quadv0:                    grid_written: F
  *** grid_quadv0:                    grad: T
  *** grid_quadv0:                    kske: F
  *** grid_quadv0:                    kslap: F
  *** grid_quadv0:                    do_scf: T
  *** grid_quadv0:                    fde_option:                    0
  *** grid_quadv0:                    n_per_rec:                 3070
  *** grid_quadv0:                    calc_type:                    1
  *** grid_quadv0:                    grid_written: F
  *** grid_quadv0:                    grad: T
  *** grid_quadv0:                    kske: F
  *** grid_quadv0:                    kslap: F
  *** grid_quadv0:                    do_scf: T
  *** grid_quadv0:                    fde_option:                    0
  *** grid_quadv0:                    n_per_rec:                 3070
  *** grid_quadv0:                    calc_type:                    1
  *** grid_quadv0:                    grid_written: F
  *** grid_quadv0:                    grad: T
  *** grid_quadv0:                    kske: F
  *** grid_quadv0:                    kslap: F
  *** grid_quadv0:                    do_scf: T
  *** grid_quadv0:                    fde_option:                    0
  *** grid_quadv0:                    n_per_rec:                 3070
  *** grid_quadv0:                    calc_type:                    1
  *** grid_quadv0:                    grid_written: F
  *** grid_quadv0:                    grad: T
  *** grid_quadv0:                    kske: F
  *** grid_quadv0:                    kslap: F
  *** grid_quadv0:                    do_scf: T
  *** grid_quadv0:                    fde_option:                    0
  *** grid_quadv0:                    n_per_rec:                 3070
  *** grid_quadv0:                    calc_type:                    1
  *** grid_quadv0:                    grid_written: F
  *** grid_quadv0:                    grad: T
  *** grid_quadv0:                    kske: F
  *** grid_quadv0:                    kslap: F
  *** grid_quadv0:                    do_scf: T
  *** grid_quadv0:                    fde_option:                    0
  *** grid_quadv0:                    n_per_rec:                 3070
  *** grid_quadv0:                    calc_type:                    1
  *** grid_quadv0:                    grid_written: F
  *** grid_quadv0:                    grad: T
  *** grid_quadv0:                    kske: F
  *** grid_quadv0:                    kslap: F
  *** grid_quadv0:                    do_scf: T
  *** grid_quadv0:                    fde_option:                    0
  *** grid_quadv0:                    n_per_rec:                 3070
   0: nuse=   8 avail= 12500000Mb on .
   1: nuse=   8 avail= 12500000Mb on .
   2: nuse=   8 avail= 12500000Mb on .
   3: nuse=   8 avail= 12500000Mb on .
   4: nuse=   8 avail= 12500000Mb on .
   5: nuse=   8 avail= 12500000Mb on .
   6: nuse=   8 avail= 12500000Mb on .
   7: nuse=   8 avail= 12500000Mb on .
 l_cube input   11.00

  atom type   l_cube   no. cubes   segmts   rad   sub
 ----------- -------- ----------- -------- ----- -----
        1     10.67        34         3      16     8

 Grid_pts file          = ./n.gridpts.0
 Record size in doubles =  12289        No. of grid_pts per rec  =   3070
 Max. records in memory =      8        Max. recs in file   = 126656358

 me   0 NQTOTC NQ/cube   14300     752
 me   1 NQTOTC NQ/cube    8882    4441
 me   2 NQTOTC NQ/cube    7843    3921
 me   3 NQTOTC NQ/cube    8339    4169
 me   4 NQTOTC NQ/cube    8339    4169
 me   5 NQTOTC NQ/cube    6898    2299
 me   6 NQTOTC NQ/cube    7200    2400
 me   7 NQTOTC NQ/cube    7639    7639

 XC quadr. integrated density :       7.000000 npts:    69290 nctrs:        1

    Fock_xc Build Time:          0.1s


     <<<<<<    Before call to GETVCOUL.   >>>>>>
     <<<<<< date:  Apr 24  time: 11:19:22 >>>>>>



     <<<<<<    End of parallel region.    >>>>>>
     <<<<<< date:  Apr 24  time: 11:19:22 >>>>>>

    Total Fock Matrix Build Time:          0.3s
 Etnew, Ecore, Ecoul, Exc(1), Exc(2), Totsic:   -54.509258441953826       -72.856498446774779        24.895667909401929       -6.5484279045809730        0.0000000000000000        0.0000000000000000     
  delta =   -54.509258441953826     


         Total DFT energy =      -54.509258441954
      One electron energy =      -72.856498446775
           Coulomb energy =       24.895667909402
    Exchange-Corr. energy =       -6.548427904581
  delta =   -54.509258441953826     
  delta =   -54.509258441953826     
  delta =   -54.509258441953826     
  delta =   -54.509258441953826     
  delta =   -54.509258441953826     
  delta =   -54.509258441953826     
  delta =   -54.509258441953826     
 Nuclear repulsion energy =        0.000000000000

 Numeric. integr. density =        6.999999995405

     Total iterative time =      1.2s




     <<<<<<        calling diis driver    >>>>>>
     <<<<<< date:  Apr 24  time: 11:19:22 >>>>>>

 nhist                     1  pulay matrix 
   0.0000E+00
  -1.0000E+00   1.8327E-01


     <<<<<<         called diis driver    >>>>>>
     <<<<<< date:  Apr 24  time: 11:19:22 >>>>>>


 global array: fock transf[1:55,1:55],  handle: -940 

            1           2           3           4           5           6  
       ----------- ----------- ----------- ----------- ----------- -----------
   1       5.33772    -0.00000    -0.00000     0.00000     3.77063     0.00000
   2      -0.00000     8.73901     0.00000     0.00000     0.00000    -0.53138
   3      -0.00000     0.00000     8.73901    -0.00000     0.00000     1.41479
   4       0.00000     0.00000    -0.00000     8.73901    -0.00000    -0.68259
   5       3.77063     0.00000     0.00000    -0.00000     6.71240     0.00000
   6       0.00000    -0.53138     1.41479    -0.68259     0.00000     1.93516
   7      -0.00000     0.58345    -0.49128    -1.47246     0.00000    -0.00000
   8      -0.00000     1.45847     0.71200     0.34035    -0.00000    -0.00000
   9       0.00000     0.00000    -0.00000    -0.00000    -0.00000    -0.00000
  10      -0.62999     0.00000     0.00000     0.00000    -1.42513     0.00000
  11      -0.00000     0.00000     0.00000    -0.00000    -0.00000     0.00000
  12       0.00000     0.00000    -0.00000     0.00000     0.00000    -0.00000
  13       0.00000     0.00000     0.00000    -0.00000     0.00000     0.00000
  14       1.02889    -0.00000     0.00000    -0.00000     0.97500    -0.00000
  15      -0.00000     0.08176    -0.08015     0.06403     0.00000     0.46532
  16       0.00000    -0.01734    -0.09150    -0.09238     0.00000     0.13268
  17       0.00000    -0.10111    -0.04911     0.06763    -0.00000     0.14368
  18       0.00000    -0.00000     0.00000     0.00000    -0.00000     0.00000
  19       0.00000    -0.00000    -0.00000    -0.00000    -0.00000    -0.00000
  20      -0.00000    -0.00000     0.00000     0.00000     0.00000    -0.00000
  21      -0.00000    -0.00000     0.00000     0.00000    -0.00000    -0.00000
  22      -0.00000     0.00000    -0.00000     0.00000     0.00000    -0.00000
  23      -0.00000    -0.00000     0.00000     0.00000     0.00000     0.00000
  24      -0.00000     0.00000    -0.00000     0.00000     0.00000    -0.00000
  25      -0.00000     0.00000    -0.00000    -0.00000    -0.00000    -0.00000
  26       0.00000     0.00000     0.00000    -0.00000    -0.00000     0.00000
  27      -0.00000     0.00000    -0.00000    -0.00000     0.00000     0.00000
  28       0.00000    -0.00000    -0.00000     0.00000    -0.00000    -0.00000
  29      -0.00000    -0.00000     0.00000     0.00000     0.00000    -0.00000
  30      -0.00000    -0.01084    -0.01153    -0.00037     0.00000    -0.17359
  31       0.00000     0.00197    -0.00236     0.01553    -0.00000    -0.25268
  32      -0.00000    -0.01136     0.01059     0.00305     0.00000     0.31931
  33      -0.00000     0.02488    -0.44371     0.15109    -0.00000    -0.96043
  34       0.00000     0.45672     0.05698     0.09214    -0.00000    -0.29037
  35      -0.00000     0.10544    -0.14212    -0.43476    -0.00000     0.05119
  36       0.20623     0.00000    -0.00000     0.00000     0.72188    -0.00000
  37       0.00000    -0.00000    -0.00000    -0.00000    -0.00000     0.00000
  38       0.00000     0.00000    -0.00000    -0.00000    -0.00000    -0.00000
  39      -0.00000    -0.00000    -0.00000     0.00000     0.00000     0.00000
  40      -0.00000    -0.00000     0.00000     0.00000    -0.00000    -0.00000
  41       0.00000    -0.00000    -0.00000     0.00000    -0.00000     0.00000
  42      -0.00000    -0.08052    -0.04282     0.08716     0.00000    -0.06228
  43      -0.00000     0.06799    -0.10569     0.01088    -0.00000    -0.15560
  44      -0.00000    -0.06933    -0.05392    -0.09054     0.00000     0.01801
  45       0.00000     0.00000    -0.00000    -0.00000    -0.00000    -0.00000
  46       0.00000     0.00000    -0.00000    -0.00000    -0.00000     0.00000
  47      -0.00130     0.00000    -0.00000    -0.00000     0.42405     0.00000
  48       0.00000    -0.08740    -0.08936    -0.14011    -0.00000     0.01186
  49      -0.00000     0.16531    -0.03055    -0.08363     0.00000    -0.05605
  50       0.00000     0.01700    -0.16228     0.09290    -0.00000    -0.22885
  51       0.28197     0.00000     0.00000    -0.00000     0.55910     0.00000
  52      -0.00000    -0.09729    -0.01943    -0.06386     0.00000     0.02405
  53      -0.00000     0.03064     0.08729    -0.07323     0.00000     0.05575
  54      -0.00000    -0.05931     0.07696     0.06693    -0.00000     0.03359
  55       0.13670     0.00000     0.00000    -0.00000     0.22355     0.00000

            7           8           9          10          11          12  
       ----------- ----------- ----------- ----------- ----------- -----------
   1      -0.00000    -0.00000     0.00000    -0.62999    -0.00000     0.00000
   2       0.58345     1.45847     0.00000     0.00000     0.00000     0.00000
   3      -0.49128     0.71200    -0.00000     0.00000     0.00000    -0.00000
   4      -1.47246     0.34035    -0.00000     0.00000    -0.00000     0.00000
   5       0.00000    -0.00000    -0.00000    -1.42513    -0.00000     0.00000
   6      -0.00000    -0.00000    -0.00000     0.00000     0.00000    -0.00000
   7       1.93516     0.00000     0.00000     0.00000    -0.00000    -0.00000
   8       0.00000     1.93516    -0.00000     0.00000    -0.00000     0.00000
   9       0.00000    -0.00000     3.49049    -0.00000     0.00000    -0.00000
  10       0.00000     0.00000    -0.00000     2.07915     0.00000    -0.00000
  11      -0.00000    -0.00000     0.00000     0.00000     3.49049    -0.00000
  12      -0.00000     0.00000    -0.00000    -0.00000    -0.00000     3.49049
  13       0.00000    -0.00000    -0.00000     0.00000     0.00000    -0.00000
  14       0.00000     0.00000     0.00000    -3.26072     0.00000     0.00000
  15       0.01672    -0.19486     0.00000    -0.00000     0.00000     0.00000
  16      -0.39646     0.28282    -0.00000     0.00000    -0.00000     0.00000
  17       0.31195     0.36988     0.00000     0.00000     0.00000    -0.00000
  18      -0.00000     0.00000     0.00000     0.00000     0.00000     0.00000
  19       0.00000     0.00000    -0.00000     0.00000    -0.00000    -0.00000
  20       0.00000    -0.00000     0.00000    -0.00000    -0.00000    -0.00000
  21       0.00000    -0.00000    -1.41868     0.00000    -0.00000    -0.00000
  22      -0.00000     0.00000    -0.00000    -0.00000     0.00000     0.00000
  23       0.00000    -0.00000     0.00000    -0.00000    -0.00000    -0.00000
  24      -0.00000     0.00000    -0.00000     0.00000     0.95112     0.86656
  25       0.00000    -0.00000     0.00000     0.00000     0.99354    -1.00509
  26      -0.00000     0.00000    -0.00000     0.00000     0.34772     0.50153
  27      -0.00000    -0.00000    -0.00000    -0.00000    -0.00000    -0.00000
  28       0.00000    -0.00000     0.00000     0.00000    -0.00000    -0.00000
  29       0.00000    -0.00000     0.00000    -0.00000     0.00000    -0.00000
  30      -0.00191    -0.40719     0.00000    -0.00000    -0.00000     0.00000
  31      -0.34661     0.10934    -0.00000    -0.00000    -0.00000    -0.00000
  32      -0.27531    -0.13483    -0.00000    -0.00000     0.00000     0.00000
  33       0.01295    -0.29456    -0.00000    -0.00000     0.00000     0.00000
  34       0.13270     0.95259     0.00000     0.00000    -0.00000    -0.00000
  35       0.99578    -0.12311    -0.00000     0.00000    -0.00000     0.00000
  36       0.00000     0.00000     0.00000    -0.61145    -0.00000     0.00000
  37       0.00000    -0.00000    -0.00000    -0.00000    -0.00000    -0.00000
  38      -0.00000     0.00000    -0.00000     0.00000    -0.00000     0.00000
  39      -0.00000    -0.00000    -0.00000    -0.00000    -0.00000    -0.00000
  40       0.00000    -0.00000    -0.00000    -0.00000     0.00000    -0.00000
  41       0.00000     0.00000     0.00000    -0.00000    -0.00000    -0.00000
  42      -0.12432    -0.09529     0.00000    -0.00000     0.00000     0.00000
  43       0.06090     0.02225    -0.00000    -0.00000    -0.00000     0.00000
  44       0.09618    -0.13726    -0.00000    -0.00000     0.00000     0.00000
  45      -0.00000     0.00000     0.00000     0.00000    -0.00000     0.00000
  46       0.00000    -0.00000    -0.00000     0.00000    -0.00000     0.00000
  47       0.00000    -0.00000    -0.00000     0.17262    -0.00000    -0.00000
  48       0.15094    -0.18092    -0.00000     0.00000    -0.00000     0.00000
  49       0.17776     0.14463    -0.00000     0.00000     0.00000    -0.00000
  50      -0.03572    -0.04480    -0.00000     0.00000     0.00000     0.00000
  51       0.00000    -0.00000     0.00000    -0.20524    -0.00000     0.00000
  52       0.01661    -0.06294    -0.00000    -0.00000    -0.00000    -0.00000
  53       0.02937     0.02905     0.00000     0.00000    -0.00000    -0.00000
  54      -0.06064    -0.00316     0.00000    -0.00000    -0.00000    -0.00000
  55       0.00000    -0.00000    -0.00000    -0.14434     0.00000     0.00000

           13          14          15          16          17          18  
       ----------- ----------- ----------- ----------- ----------- -----------
   1       0.00000     1.02889    -0.00000     0.00000     0.00000     0.00000
   2       0.00000    -0.00000     0.08176    -0.01734    -0.10111    -0.00000
   3       0.00000     0.00000    -0.08015    -0.09150    -0.04911     0.00000
   4      -0.00000    -0.00000     0.06403    -0.09238     0.06763     0.00000
   5       0.00000     0.97500     0.00000     0.00000    -0.00000    -0.00000
   6       0.00000    -0.00000     0.46532     0.13268     0.14368     0.00000
   7       0.00000     0.00000     0.01672    -0.39646     0.31195    -0.00000
   8      -0.00000     0.00000    -0.19486     0.28282     0.36988     0.00000
   9      -0.00000     0.00000     0.00000    -0.00000     0.00000     0.00000
  10       0.00000    -3.26072    -0.00000     0.00000     0.00000     0.00000
  11       0.00000     0.00000     0.00000    -0.00000     0.00000     0.00000
  12      -0.00000     0.00000     0.00000     0.00000    -0.00000     0.00000
  13       3.49049    -0.00000     0.00000    -0.00000     0.00000     0.00000
  14      -0.00000     8.09390    -0.00000     0.00000    -0.00000     0.00000
  15       0.00000    -0.00000     3.31813     0.00000     0.00000    -0.00000
  16      -0.00000     0.00000     0.00000     3.31813    -0.00000     0.00000
  17       0.00000    -0.00000    -0.00000    -0.00000     3.31813     0.00000
  18       0.00000     0.00000    -0.00000     0.00000     0.00000     2.75845
  19      -0.00000     0.00000    -0.00000    -0.00000     0.00000    -0.00000
  20      -0.00000     0.00000    -0.00000    -0.00000     0.00000     0.00000
  21       0.00000    -0.00000     0.00000    -0.00000     0.00000     0.00000
  22       0.00000     0.00000     0.00000    -0.00000     0.00000     0.00000
  23      -0.00000     0.00000    -0.00000    -0.00000    -0.00000    -0.00000
  24      -0.59758     0.00000     0.00000    -0.00000    -0.00000    -0.00000
  25       0.12384     0.00000    -0.00000     0.00000    -0.00000     0.00000
  26       1.28071    -0.00000    -0.00000    -0.00000     0.00000     0.00000
  27       0.00000     0.00000    -0.00000     0.00000    -0.00000    -1.63380
  28       0.00000     0.00000     0.00000     0.00000    -0.00000    -0.00205
  29       0.00000    -0.00000    -0.00000     0.00000     0.00000    -0.22614
  30       0.00000    -0.00000    -0.00821    -0.77198    -0.98942    -0.00000
  31       0.00000     0.00000    -0.81265     0.75725    -0.58409     0.00000
  32       0.00000    -0.00000     0.95630     0.63687    -0.50484     0.00000
  33      -0.00000    -0.00000     0.53781     0.29823     0.33559     0.00000
  34       0.00000     0.00000     0.44004    -0.24630    -0.48633    -0.00000
  35      -0.00000     0.00000    -0.08905     0.58412    -0.37640     0.00000
  36       0.00000     0.10557     0.00000     0.00000     0.00000    -0.00000
  37       0.00000    -0.00000    -0.00000     0.00000    -0.00000    -0.00000
  38       0.00000    -0.00000     0.00000     0.00000     0.00000     0.00000
  39      -0.00000     0.00000    -0.00000     0.00000     0.00000    -0.37442
  40       0.00000    -0.00000    -0.00000     0.00000     0.00000     0.04176
  41       0.00000    -0.00000     0.00000     0.00000    -0.00000    -0.02391
  42       0.00000    -0.00000     0.01072    -0.01207     0.07119    -0.00000
  43      -0.00000     0.00000     0.06496     0.03303    -0.00418     0.00000
  44      -0.00000     0.00000    -0.03152     0.06397     0.01559     0.00000
  45       0.00000    -0.00000     0.00000     0.00000    -0.00000     0.00000
  46       0.00000     0.00000    -0.00000     0.00000    -0.00000     0.00000
  47       0.00000    -1.61594     0.00000     0.00000     0.00000    -0.00000
  48      -0.00000    -0.00000    -0.07025     0.17758     0.02942     0.00000
  49       0.00000    -0.00000     0.08323     0.06005    -0.16371     0.00000
  50      -0.00000    -0.00000     0.15960     0.04685     0.09833     0.00000
  51       0.00000    -0.03257     0.00000     0.00000     0.00000    -0.00000
  52      -0.00000    -0.00000    -0.05684     0.05076     0.03507     0.00000
  53       0.00000    -0.00000    -0.04975    -0.00951    -0.06687    -0.00000
  54       0.00000     0.00000    -0.03648    -0.06611     0.03655    -0.00000
  55       0.00000     0.15694     0.00000     0.00000     0.00000     0.00000

           19          20          21          22          23          24  
       ----------- ----------- ----------- ----------- ----------- -----------
   1       0.00000    -0.00000    -0.00000    -0.00000    -0.00000    -0.00000
   2      -0.00000    -0.00000    -0.00000     0.00000    -0.00000     0.00000
   3      -0.00000     0.00000     0.00000    -0.00000     0.00000    -0.00000
   4      -0.00000     0.00000     0.00000     0.00000     0.00000     0.00000
   5      -0.00000     0.00000    -0.00000     0.00000     0.00000     0.00000
   6      -0.00000    -0.00000    -0.00000    -0.00000     0.00000    -0.00000
   7       0.00000     0.00000     0.00000    -0.00000     0.00000    -0.00000
   8       0.00000    -0.00000    -0.00000     0.00000    -0.00000     0.00000
   9      -0.00000     0.00000    -1.41868    -0.00000     0.00000    -0.00000
  10       0.00000    -0.00000     0.00000    -0.00000    -0.00000     0.00000
  11      -0.00000    -0.00000    -0.00000     0.00000    -0.00000     0.95112
  12      -0.00000    -0.00000    -0.00000     0.00000    -0.00000     0.86656
  13      -0.00000    -0.00000     0.00000     0.00000    -0.00000    -0.59758
  14       0.00000     0.00000    -0.00000     0.00000     0.00000     0.00000
  15      -0.00000    -0.00000     0.00000     0.00000    -0.00000     0.00000
  16      -0.00000    -0.00000    -0.00000    -0.00000    -0.00000    -0.00000
  17       0.00000     0.00000     0.00000     0.00000    -0.00000    -0.00000
  18      -0.00000     0.00000     0.00000     0.00000    -0.00000    -0.00000
  19       2.75845     0.00000    -0.00000    -0.00000     0.00000    -0.00000
  20       0.00000     2.75845     0.00000     0.00000    -0.00000     0.00000
  21      -0.00000     0.00000     2.30489     0.00000    -0.00000     0.00000
  22      -0.00000     0.00000     0.00000     2.75845    -0.00000     0.00000
  23       0.00000    -0.00000    -0.00000    -0.00000     2.75845     0.00000
  24      -0.00000     0.00000     0.00000     0.00000     0.00000     2.30489
  25       0.00000    -0.00000    -0.00000    -0.00000     0.00000     0.00000
  26       0.00000    -0.00000     0.00000    -0.00000     0.00000     0.00000
  27       0.18161    -0.13477    -0.00000     0.00000    -0.00000     0.00000
  28       0.97101     1.33326     0.00000     0.00000    -0.00000    -0.00000
  29      -1.32084     0.96161     0.00000     0.00000    -0.00000     0.00000
  30      -0.00000     0.00000     0.00000    -0.00000     0.00000     0.00000
  31       0.00000    -0.00000    -0.00000    -0.00000    -0.00000     0.00000
  32      -0.00000    -0.00000    -0.00000    -0.00000    -0.00000     0.00000
  33      -0.00000    -0.00000    -0.00000    -0.00000     0.00000     0.00000
  34      -0.00000    -0.00000     0.00000     0.00000     0.00000     0.00000
  35      -0.00000    -0.00000    -0.00000     0.00000     0.00000    -0.00000
  36      -0.00000    -0.00000    -0.00000     0.00000    -0.00000     0.00000
  37       0.00000    -0.00000    -0.00000    -1.64236     0.15198    -0.00000
  38      -0.00000     0.00000     0.00000    -0.15198    -1.64236     0.00000
  39      -0.04796     0.00398    -0.00000    -0.00000     0.00000     0.00000
  40      -0.30828     0.21384     0.00000    -0.00000     0.00000     0.00000
  41       0.21254     0.31107     0.00000    -0.00000     0.00000     0.00000
  42       0.00000     0.00000     0.00000    -0.00000     0.00000    -0.00000
  43      -0.00000    -0.00000    -0.00000    -0.00000    -0.00000     0.00000
  44       0.00000    -0.00000    -0.00000    -0.00000     0.00000    -0.00000
  45      -0.00000     0.00000    -0.00000     0.13563    -0.35230     0.00000
  46      -0.00000     0.00000    -0.00000    -0.35230    -0.13563    -0.00000
  47      -0.00000     0.00000    -0.00000     0.00000    -0.00000    -0.00000
  48       0.00000    -0.00000    -0.00000     0.00000     0.00000    -0.00000
  49      -0.00000    -0.00000    -0.00000     0.00000     0.00000     0.00000
  50      -0.00000    -0.00000    -0.00000    -0.00000     0.00000     0.00000
  51      -0.00000    -0.00000    -0.00000     0.00000     0.00000    -0.00000
  52       0.00000    -0.00000    -0.00000    -0.00000     0.00000    -0.00000
  53       0.00000     0.00000     0.00000     0.00000    -0.00000    -0.00000
  54       0.00000     0.00000     0.00000    -0.00000    -0.00000    -0.00000
  55       0.00000    -0.00000     0.00000     0.00000    -0.00000    -0.00000

           25          26          27          28          29          30  
       ----------- ----------- ----------- ----------- ----------- -----------
   1      -0.00000     0.00000    -0.00000     0.00000    -0.00000    -0.00000
   2       0.00000     0.00000     0.00000    -0.00000    -0.00000    -0.01084
   3      -0.00000     0.00000    -0.00000    -0.00000     0.00000    -0.01153
   4      -0.00000    -0.00000    -0.00000     0.00000     0.00000    -0.00037
   5      -0.00000    -0.00000     0.00000    -0.00000     0.00000     0.00000
   6      -0.00000     0.00000     0.00000    -0.00000    -0.00000    -0.17359
   7       0.00000    -0.00000    -0.00000     0.00000     0.00000    -0.00191
   8      -0.00000     0.00000    -0.00000    -0.00000    -0.00000    -0.40719
   9       0.00000    -0.00000    -0.00000     0.00000     0.00000     0.00000
  10       0.00000     0.00000    -0.00000     0.00000    -0.00000    -0.00000
  11       0.99354     0.34772    -0.00000    -0.00000     0.00000    -0.00000
  12      -1.00509     0.50153    -0.00000    -0.00000    -0.00000    -0.00000
  13       0.12384     1.28071     0.00000     0.00000     0.00000     0.00000
  14       0.00000    -0.00000     0.00000     0.00000    -0.00000    -0.00000
  15      -0.00000    -0.00000    -0.00000     0.00000    -0.00000    -0.00821
  16       0.00000    -0.00000     0.00000     0.00000     0.00000    -0.77198
  17      -0.00000     0.00000    -0.00000    -0.00000     0.00000    -0.98942
  18       0.00000     0.00000    -1.63380    -0.00205    -0.22614    -0.00000
  19       0.00000     0.00000     0.18161     0.97101    -1.32084    -0.00000
  20      -0.00000    -0.00000    -0.13477     1.33326     0.96161     0.00000
  21      -0.00000     0.00000    -0.00000     0.00000     0.00000     0.00000
  22      -0.00000    -0.00000     0.00000     0.00000     0.00000    -0.00000
  23       0.00000     0.00000    -0.00000    -0.00000    -0.00000     0.00000
  24       0.00000     0.00000     0.00000    -0.00000     0.00000     0.00000
  25       2.30489    -0.00000     0.00000     0.00000     0.00000    -0.00000
  26      -0.00000     2.30489     0.00000     0.00000     0.00000    -0.00000
  27       0.00000     0.00000     2.42914     0.00000     0.00000     0.00000
  28       0.00000     0.00000     0.00000     2.42914     0.00000    -0.00000
  29       0.00000     0.00000     0.00000     0.00000     2.42914    -0.00000
  30      -0.00000    -0.00000     0.00000    -0.00000    -0.00000     2.22391
  31       0.00000    -0.00000    -0.00000     0.00000     0.00000    -0.00000
  32       0.00000     0.00000    -0.00000     0.00000    -0.00000    -0.00000
  33       0.00000    -0.00000    -0.00000     0.00000     0.00000     0.05276
  34      -0.00000     0.00000     0.00000     0.00000    -0.00000    -0.06216
  35      -0.00000    -0.00000    -0.00000     0.00000     0.00000     0.00724
  36      -0.00000    -0.00000     0.00000    -0.00000    -0.00000     0.00000
  37       0.00000     0.00000    -0.00000     0.00000    -0.00000    -0.00000
  38      -0.00000    -0.00000     0.00000     0.00000     0.00000     0.00000
  39       0.00000     0.00000     0.93826    -0.06306     0.23647     0.00000
  40       0.00000    -0.00000    -0.23832    -0.02230     0.93965    -0.00000
  41      -0.00000     0.00000     0.05566     0.96734     0.03708    -0.00000
  42       0.00000    -0.00000    -0.00000     0.00000     0.00000     0.03272
  43      -0.00000    -0.00000     0.00000    -0.00000    -0.00000     0.01171
  44      -0.00000    -0.00000     0.00000     0.00000     0.00000     0.03451
  45      -0.00000    -0.00000     0.00000    -0.00000     0.00000     0.00000
  46      -0.00000    -0.00000     0.00000     0.00000     0.00000    -0.00000
  47       0.00000     0.00000    -0.00000     0.00000     0.00000    -0.00000
  48       0.00000    -0.00000     0.00000     0.00000    -0.00000    -0.06407
  49       0.00000    -0.00000     0.00000     0.00000     0.00000     0.04446
  50       0.00000    -0.00000     0.00000     0.00000     0.00000    -0.05213
  51       0.00000     0.00000    -0.00000    -0.00000    -0.00000    -0.00000
  52      -0.00000    -0.00000    -0.00000     0.00000    -0.00000    -0.05235
  53      -0.00000     0.00000     0.00000    -0.00000    -0.00000     0.05270
  54       0.00000     0.00000    -0.00000    -0.00000    -0.00000     0.01082
  55       0.00000     0.00000    -0.00000    -0.00000    -0.00000    -0.00000

           31          32          33          34          35          36  
       ----------- ----------- ----------- ----------- ----------- -----------
   1       0.00000    -0.00000    -0.00000     0.00000    -0.00000     0.20623
   2       0.00197    -0.01136     0.02488     0.45672     0.10544     0.00000
   3      -0.00236     0.01059    -0.44371     0.05698    -0.14212    -0.00000
   4       0.01553     0.00305     0.15109     0.09214    -0.43476     0.00000
   5      -0.00000     0.00000    -0.00000    -0.00000    -0.00000     0.72188
   6      -0.25268     0.31931    -0.96043    -0.29037     0.05119    -0.00000
   7      -0.34661    -0.27531     0.01295     0.13270     0.99578     0.00000
   8       0.10934    -0.13483    -0.29456     0.95259    -0.12311     0.00000
   9      -0.00000    -0.00000    -0.00000     0.00000    -0.00000     0.00000
  10      -0.00000    -0.00000    -0.00000     0.00000     0.00000    -0.61145
  11      -0.00000     0.00000     0.00000    -0.00000    -0.00000    -0.00000
  12      -0.00000     0.00000     0.00000    -0.00000     0.00000     0.00000
  13       0.00000     0.00000    -0.00000     0.00000    -0.00000     0.00000
  14       0.00000    -0.00000    -0.00000     0.00000     0.00000     0.10557
  15      -0.81265     0.95630     0.53781     0.44004    -0.08905     0.00000
  16       0.75725     0.63687     0.29823    -0.24630     0.58412     0.00000
  17      -0.58409    -0.50484     0.33559    -0.48633    -0.37640     0.00000
  18       0.00000     0.00000     0.00000    -0.00000     0.00000    -0.00000
  19       0.00000    -0.00000    -0.00000    -0.00000    -0.00000    -0.00000
  20      -0.00000    -0.00000    -0.00000    -0.00000    -0.00000    -0.00000
  21      -0.00000    -0.00000    -0.00000     0.00000    -0.00000    -0.00000
  22      -0.00000    -0.00000    -0.00000     0.00000     0.00000     0.00000
  23      -0.00000    -0.00000     0.00000     0.00000     0.00000    -0.00000
  24       0.00000     0.00000     0.00000     0.00000    -0.00000     0.00000
  25       0.00000     0.00000     0.00000    -0.00000    -0.00000    -0.00000
  26      -0.00000     0.00000    -0.00000     0.00000    -0.00000    -0.00000
  27      -0.00000    -0.00000    -0.00000     0.00000    -0.00000     0.00000
  28       0.00000     0.00000     0.00000     0.00000     0.00000    -0.00000
  29       0.00000    -0.00000     0.00000    -0.00000     0.00000    -0.00000
  30      -0.00000    -0.00000     0.05276    -0.06216     0.00724     0.00000
  31       2.22391     0.00000     0.03791     0.02421    -0.06839     0.00000
  32       0.00000     2.22391    -0.04979    -0.04743    -0.04440    -0.00000
  33       0.03791    -0.04979     2.58120     0.00000    -0.00000     0.00000
  34       0.02421    -0.04743     0.00000     2.58120     0.00000     0.00000
  35      -0.06839    -0.04440    -0.00000     0.00000     2.58120     0.00000
  36       0.00000    -0.00000     0.00000     0.00000     0.00000     0.57700
  37      -0.00000     0.00000    -0.00000     0.00000    -0.00000    -0.00000
  38      -0.00000     0.00000    -0.00000    -0.00000     0.00000    -0.00000
  39      -0.00000    -0.00000    -0.00000     0.00000    -0.00000    -0.00000
  40       0.00000    -0.00000     0.00000     0.00000     0.00000    -0.00000
  41       0.00000     0.00000    -0.00000     0.00000    -0.00000     0.00000
  42       0.03178     0.01785     0.60588    -0.62633    -0.80938     0.00000
  43       0.01355    -0.04559     1.00900     0.52290     0.35068    -0.00000
  44      -0.03472    -0.00146     0.17118    -0.86532     0.79775    -0.00000
  45      -0.00000     0.00000    -0.00000     0.00000     0.00000     0.00000
  46      -0.00000     0.00000    -0.00000     0.00000     0.00000    -0.00000
  47      -0.00000     0.00000     0.00000    -0.00000    -0.00000     3.07892
  48       0.06745     0.01201     0.06689    -0.23755     0.26413    -0.00000
  49       0.02842     0.07755     0.02065     0.27091     0.23843    -0.00000
  50      -0.05866     0.05138     0.35464     0.02904    -0.06370     0.00000
  51      -0.00000     0.00000     0.00000     0.00000     0.00000     1.45942
  52       0.04574    -0.02833    -0.02828    -0.42151     0.16614     0.00000
  53       0.05155    -0.01417    -0.40192     0.10017     0.18574     0.00000
  54      -0.02978    -0.06806    -0.20912    -0.13553    -0.37943    -0.00000
  55      -0.00000    -0.00000     0.00000    -0.00000     0.00000     0.37320

           37          38          39          40          41          42  
       ----------- ----------- ----------- ----------- ----------- -----------
   1       0.00000     0.00000    -0.00000    -0.00000     0.00000    -0.00000
   2      -0.00000     0.00000    -0.00000    -0.00000    -0.00000    -0.08052
   3      -0.00000    -0.00000    -0.00000     0.00000    -0.00000    -0.04282
   4      -0.00000    -0.00000     0.00000     0.00000     0.00000     0.08716
   5      -0.00000    -0.00000     0.00000    -0.00000    -0.00000     0.00000
   6       0.00000    -0.00000     0.00000    -0.00000     0.00000    -0.06228
   7       0.00000    -0.00000    -0.00000     0.00000     0.00000    -0.12432
   8      -0.00000     0.00000    -0.00000    -0.00000     0.00000    -0.09529
[...]
   1      -0.00000     0.00000     5.10929    -0.00000    -0.00000     0.00000
   2      -0.00000     0.00000     9.32933    -0.00000    -0.00000     0.00000
   3      -0.00000     0.00000    -5.38917    -0.00000     0.00000    -0.00000
   4       0.00000    -0.00000     7.98757     0.00000    -0.00000     0.00000
   5       0.00000    -0.00000     0.16666     0.00000    -0.00000     0.00000
   6      -0.00000    -0.00000     0.00000     1.08873    -2.56413    -0.89160
   7      -0.00000     0.00000     0.00000     0.55974     1.15202    -2.62956
   8       0.00000     0.00000     0.00000    -2.65639    -0.80817    -0.91951
   9       0.00000     0.00000    -0.00000    -5.53770    13.04220     4.53506
  10      -0.00000     0.00000    -0.00000    -2.84705    -5.85963    13.37500
  11       0.00000    -0.00000    -0.00000    13.51148     4.11066     4.67699
  12      -0.00000     0.00000    -0.00000    -1.67580     3.94679     1.37239
  13       0.00000     0.00000    -0.00000    -0.86157    -1.77323     4.04750
  14      -0.00000    -0.00000    -0.00000     4.08880     1.24396     1.41534
  15       0.00000    -0.00000     0.00000     0.16693    -0.39314    -0.13670
  16      -0.00000     0.00000     0.00000     0.08582     0.17663    -0.40317
  17       0.00000     0.00000     0.00000    -0.40728    -0.12391    -0.14098
  18       0.00000     0.00000    -1.65400     0.00000    -0.00000    -0.00000
  19       1.97161    -0.38619     0.00000    -0.00000    -0.00000     0.00000
  20      -0.68477    -0.47618    -0.00000    -0.00000    -0.00000    -0.00000
  21      -0.00000    -0.00000    -1.65400     0.00000    -0.00000    -0.00000
  22       0.21694     2.00682    -0.00000    -0.00000    -0.00000    -0.00000
  23       0.00000     0.00000    -1.65400     0.00000    -0.00000    -0.00000
  24      -0.00000    -0.00000    -4.45142     0.00000     0.00000    -0.00000
  25      -1.33621     0.26173    -0.00000     0.00000     0.00000    -0.00000
  26       0.46408     0.32272    -0.00000     0.00000    -0.00000     0.00000
  27       0.00000     0.00000    -4.45142    -0.00000     0.00000    -0.00000
  28      -0.14702    -1.36007     0.00000    -0.00000     0.00000     0.00000
  29      -0.00000    -0.00000    -4.45142    -0.00000     0.00000    -0.00000
  30       0.00000     0.00000    -0.75192    -0.00000     0.00000    -0.00000
  31       0.48367    -0.09474     0.00000    -0.00000    -0.00000    -0.00000
  32      -0.16799    -0.11682     0.00000    -0.00000     0.00000    -0.00000
  33      -0.00000    -0.00000    -0.75192    -0.00000     0.00000    -0.00000
  34       0.05322     0.49231    -0.00000     0.00000    -0.00000     0.00000
  35       0.00000     0.00000    -0.75192    -0.00000     0.00000    -0.00000
  36       0.00000     0.00000     0.00000     2.90275    -6.83645    -2.37718
  37      -0.00000    -0.00000     0.00000     1.49236     3.07150    -7.01090
  38      -0.00000     0.00000     0.00000    -7.08243    -2.15472    -2.45158
  39      -0.00000    -0.00000     0.00000     2.90275    -6.83645    -2.37718
  40      -0.00000    -0.00000    -0.00000     0.00000     0.00000     0.00000
  41       0.00000    -0.00000     0.00000     2.90275    -6.83645    -2.37718
  42       0.00000    -0.00000     0.00000     1.49236     3.07150    -7.01090
  43      -0.00000     0.00000     0.00000    -7.08243    -2.15472    -2.45158
  44      -0.00000     0.00000     0.00000     1.49236     3.07150    -7.01090
  45       0.00000    -0.00000     0.00000    -7.08243    -2.15472    -2.45158
  46      -0.00000    -0.00000     0.00000     1.69483    -3.99161    -1.38797
  47       0.00000     0.00000     0.00000     0.87135     1.79336    -4.09347
  48       0.00000    -0.00000     0.00000    -4.13524    -1.25808    -1.43141
  49       0.00000    -0.00000     0.00000     1.69483    -3.99161    -1.38797
  50       0.00000     0.00000     0.00000    -0.00000    -0.00000     0.00000
  51      -0.00000    -0.00000     0.00000     1.69483    -3.99161    -1.38797
  52      -0.00000    -0.00000     0.00000     0.87135     1.79336    -4.09347
  53       0.00000    -0.00000     0.00000    -4.13524    -1.25808    -1.43141
  54      -0.00000    -0.00000     0.00000     0.87135     1.79336    -4.09347
  55      -0.00000     0.00000     0.00000    -4.13524    -1.25808    -1.43141

           55  
       -----------
   1       3.83862
   2      10.25458
   3      -1.37712
   4       9.14455
   5       0.88028
   6       0.00000
   7      -0.00000
   8      -0.00000
   9      -0.00000
  10       0.00000
  11       0.00000
  12      -0.00000
  13       0.00000
  14       0.00000
  15       0.00000
  16      -0.00000
  17      -0.00000
  18      -3.80359
  19       0.00000
  20      -0.00000
  21      -3.80359
  22      -0.00000
  23      -3.80359
  24      -4.66245
  25      -0.00000
  26      -0.00000
  27      -4.66245
  28       0.00000
  29      -4.66245
  30      -1.27560
  31       0.00000
  32       0.00000
  33      -1.27560
  34      -0.00000
  35      -1.27560
  36       0.00000
  37      -0.00000
  38      -0.00000
  39       0.00000
  40      -0.00000
  41       0.00000
  42      -0.00000
  43      -0.00000
  44      -0.00000
  45      -0.00000
  46       0.00000
  47      -0.00000
  48      -0.00000
  49       0.00000
  50       0.00000
  51       0.00000
  52      -0.00000
  53      -0.00000
  54      -0.00000
  55      -0.00000
  int_init: cando_txs set to always be  F
                                NWChem TDDFT Module
                                -------------------


            General Information
            -------------------
           No. of orbitals :     110
            Alpha orbitals :      55
             Beta orbitals :      55
        Alpha frozen cores :       0
         Beta frozen cores :       0
     Alpha frozen virtuals :       0
      Beta frozen virtuals :       0
         Spin multiplicity :       4
    Number of AO functions :      55
        Use of symmetry is : off
      Symmetry adaption is : off
         Schwarz screening :  0.10D-07

              XC Information
              --------------
              Hartree-Fock (Exact) Exchange   1.00          
              LC-wPBE(h)Exchange Functional   1.00          
     Perdew 1991 LDA Correlation Functional   1.00 local    
    PerdewBurkeErnz. Correlation Functional   1.00 non-local
           Alpha           :  0.00
           Beta            :  1.00
           Gamma           :  0.40

             TDDFT Information
             -----------------
          Calculation type : TDDFT             
         Wavefunction type : Unrestricted
          No. of electrons :       7
           Alpha electrons :       5
            Beta electrons :       2
              No. of roots :       5
          Max subspacesize :    5000
            Max iterations :     100
               Target root :       1
           Target symmetry : none
      Symmetry restriction : off
                 Algorithm : Optimal
        Davidson threshold :  0.10D-03

            Memory Information
            ------------------
          Available GA space size is       52428793950 doubles
          Available MA space size is        4194413092 doubles
          Length of a trial vector is          250     106
          Algorithm : Incore multiple tensor contraction
          Estimated peak GA usage is           7631760 doubles
          Estimated peak MA usage is             18000 doubles

    5 smallest eigenvalue differences (eV) 
--------------------------------------------------------
  No. Spin  Occ  Vir  Irrep   E(Occ)    E(Vir)   E(Diff)
--------------------------------------------------------
    1    1    5    6 a        -0.487     0.087    15.632
    2    1    4    6 a        -0.487     0.087    15.632
    3    1    3    6 a        -0.487     0.087    15.632
    4    1    5    7 a        -0.487     0.120    16.515
    5    1    5    8 a        -0.487     0.120    16.515
--------------------------------------------------------

  Entering Davidson iterations
  Unrestricted

  Iter   NTrls   NConv    DeltaV     DeltaE      Time   
  ----  ------  ------  ---------  ---------  --------- 
    1      5       0     0.12E+00   0.10+100        3.9
    2     15       0     0.42E-01   0.95E-02        6.8
    3     25       0     0.47E-01   0.46E-02        7.1
    4     35       0     0.80E-01   0.10E-01        4.8
    5     45       0     0.10E-01   0.16E-02        4.4
    6     55       0     0.12E-02   0.17E-04        4.0
    7     65       5     0.24E-04   0.19E-06        3.5
  ----  ------  ------  ---------  ---------  --------- 
  Convergence criterion met

  Ground state a         -54.560233706739 a.u.
  <S2> =   3.7515

  ----------------------------------------------------------------------------
  Root   1         a              0.358668924 a.u.                9.7599 eV 
  <S2> =   3.7513
  ----------------------------------------------------------------------------
     Transition Moments    X  0.09618   Y -0.23355   Z  0.52623
     Transition Moments   XX  0.00000  XY -0.00000  XZ  0.00000
     Transition Moments   YY  0.00000  YZ  0.00000  ZZ  0.00000
     Dipole Oscillator Strength                    0.0814683904
     Electric Quadrupole                           0.0000000000
     Magnetic Dipole                               0.0000000000
     Total Oscillator Strength                     0.0814683904

     Occ.    3 alpha a   ---  Virt.    6 alpha a   -0.13707 X
     Occ.    5 alpha a   ---  Virt.    6 alpha a   -0.93794 X
     Occ.    5 alpha a   ---  Virt.   10 alpha a    0.16878 X
     Occ.    2 beta  a   ---  Virt.    3 beta  a   -0.24398 X
     Occ.    2 beta  a   ---  Virt.    8 beta  a    0.05228 X
  ----------------------------------------------------------------------------
  Root   2         a              0.358668924 a.u.                9.7599 eV 
  <S2> =   3.7513
  ----------------------------------------------------------------------------
     Transition Moments    X  0.57149   Y  0.10334   Z -0.05859
     Transition Moments   XX  0.00000  XY  0.00000  XZ -0.00000
     Transition Moments   YY  0.00000  YZ  0.00000  ZZ  0.00000
     Dipole Oscillator Strength                    0.0814683904
     Electric Quadrupole                           0.0000000000
     Magnetic Dipole                               0.0000000000
     Total Oscillator Strength                     0.0814683904

     Occ.    3 alpha a   ---  Virt.    6 alpha a    0.40545 X
     Occ.    3 alpha a   ---  Virt.   10 alpha a   -0.07296 X
     Occ.    4 alpha a   ---  Virt.    6 alpha a   -0.85238 X
     Occ.    4 alpha a   ---  Virt.   10 alpha a    0.15338 X
     Occ.    5 alpha a   ---  Virt.    6 alpha a   -0.09596 X
     Occ.    2 beta  a   ---  Virt.    5 beta  a   -0.24436 X
     Occ.    2 beta  a   ---  Virt.    8 beta  a   -0.05799 X
  ----------------------------------------------------------------------------
  Root   3         a              0.358668924 a.u.                9.7599 eV 
  <S2> =   3.7513
  ----------------------------------------------------------------------------
     Transition Moments    X -0.06972   Y  0.52487   Z  0.24569
     Transition Moments   XX -0.00000  XY  0.00000  XZ  0.00000
     Transition Moments   YY -0.00000  YZ  0.00000  ZZ -0.00000
     Dipole Oscillator Strength                    0.0814687474
     Electric Quadrupole                           0.0000000000
     Magnetic Dipole                               0.0000000000
     Total Oscillator Strength                     0.0814687474

     Occ.    3 alpha a   ---  Virt.    6 alpha a   -0.84675 X
     Occ.    3 alpha a   ---  Virt.   10 alpha a    0.15237 X
     Occ.    4 alpha a   ---  Virt.    6 alpha a   -0.41469 X
     Occ.    4 alpha a   ---  Virt.   10 alpha a    0.07462 X
     Occ.    5 alpha a   ---  Virt.    6 alpha a    0.10588 X
     Occ.    2 beta  a   ---  Virt.    4 beta  a   -0.24637 X
     Occ.    2 beta  a   ---  Virt.    9 beta  a   -0.06519 X
  ----------------------------------------------------------------------------
  Root   4         a              0.400198634 a.u.               10.8900 eV 
  <S2> =   3.7564
  ----------------------------------------------------------------------------
     Transition Moments    X -0.36624   Y -0.04338   Z -0.01201
     Transition Moments   XX  0.00000  XY  0.00000  XZ  0.00000
     Transition Moments   YY -0.00000  YZ -0.00000  ZZ -0.00000
     Dipole Oscillator Strength                    0.0363266147
     Electric Quadrupole                           0.0000000000
     Magnetic Dipole                               0.0000000000
     Total Oscillator Strength                     0.0363266147

     Occ.    3 alpha a   ---  Virt.    6 alpha a    0.10721 X
     Occ.    3 alpha a   ---  Virt.   12 alpha a    0.05819 X
     Occ.    3 alpha a   ---  Virt.   15 alpha a   -0.05886 X
     Occ.    4 alpha a   ---  Virt.    6 alpha a   -0.23611 X
     Occ.    4 alpha a   ---  Virt.   12 alpha a   -0.08394 X
     Occ.    4 alpha a   ---  Virt.   13 alpha a   -0.05128 X
     Occ.    5 alpha a   ---  Virt.    6 alpha a   -0.06528 X
     Occ.    5 alpha a   ---  Virt.   14 alpha a   -0.06962 X
     Occ.    2 beta  a   ---  Virt.    5 beta  a    0.91458 X
     Occ.    2 beta  a   ---  Virt.    7 beta  a    0.15174 X
     Occ.    2 beta  a   ---  Virt.    8 beta  a    0.14739 X
     Occ.    2 beta  a   ---  Virt.    9 beta  a    0.09399 X
     Occ.    2 beta  a   ---  Virt.   18 beta  a   -0.05304 X
  ----------------------------------------------------------------------------
  Root   5         a              0.400198634 a.u.               10.8900 eV 
  <S2> =   3.7564
  ----------------------------------------------------------------------------
     Transition Moments    X -0.00747   Y  0.15567   Z -0.33447
     Transition Moments   XX  0.00000  XY -0.00000  XZ  0.00000
     Transition Moments   YY  0.00000  YZ -0.00000  ZZ  0.00000
     Dipole Oscillator Strength                    0.0363266147
     Electric Quadrupole                           0.0000000000
     Magnetic Dipole                               0.0000000000
     Total Oscillator Strength                     0.0363266147

     Occ.    3 alpha a   ---  Virt.    6 alpha a   -0.05483 X
     Occ.    3 alpha a   ---  Virt.   11 alpha a    0.07170 X
     Occ.    3 alpha a   ---  Virt.   14 alpha a    0.05710 X
     Occ.    4 alpha a   ---  Virt.   13 alpha a    0.05396 X
     Occ.    4 alpha a   ---  Virt.   15 alpha a   -0.05779 X
     Occ.    5 alpha a   ---  Virt.    6 alpha a   -0.25759 X
     Occ.    5 alpha a   ---  Virt.   12 alpha a    0.05356 X
     Occ.    5 alpha a   ---  Virt.   14 alpha a   -0.06143 X
     Occ.    2 beta  a   ---  Virt.    3 beta  a    0.91255 X
     Occ.    2 beta  a   ---  Virt.    4 beta  a    0.07697 X
     Occ.    2 beta  a   ---  Virt.    7 beta  a    0.11967 X
     Occ.    2 beta  a   ---  Virt.    8 beta  a   -0.17831 X
     Occ.    2 beta  a   ---  Virt.    9 beta  a    0.08641 X

              Target root =      1
          Target symmetry = none
      Ground state energy =    -54.560233706739
        Excitation energy =      0.358668923634
     Excited state energy =    -54.201564783105

  stored tddft:energy   -54.201564783105383     

 Task  times  cpu:       33.4s     wall:       38.5s


                                NWChem Input Module
                                -------------------


 Summary of allocated global arrays
-----------------------------------
  No active global arrays


MA_summarize_allocated_blocks: starting scan ...
heap block 'gridpts', handle 114, address 0x13f7dba8:
	type of elements:		double precision
	number of elements:		1048465655
	address of client space:	0x13f7dc00
	index for client space:		13719255
	total number of bytes:		8387725336
MA_summarize_allocated_blocks: scan completed: 1 heap block, 0 stack blocks
MA usage statistics:

	allocation statistics:
					      heap	     stack
					      ----	     -----
	current number of blocks	         1	         0
	maximum number of blocks	        18	        54
	current total bytes		8387725336	         0
	maximum total bytes		8388517952	  22513224
	maximum total K-bytes		   8388518	     22514
	maximum total M-bytes		      8389	        23


                                     CITATION
                                     --------
                Please cite the following reference when publishing
                           results obtained with NWChem:

          E. Apra, E. J. Bylaska, W. A. de Jong, N. Govind, K. Kowalski,
       T. P. Straatsma, M. Valiev, H. J. J. van Dam, Y. Alexeev, J. Anchell,
       V. Anisimov, F. W. Aquino, R. Atta-Fynn, J. Autschbach, N. P. Bauman,
     J. C. Becca, D. E. Bernholdt, K. Bhaskaran-Nair, S. Bogatko, P. Borowski,
         J. Boschen, J. Brabec, A. Bruner, E. Cauet, Y. Chen, G. N. Chuev,
      C. J. Cramer, J. Daily, M. J. O. Deegan, T. H. Dunning Jr., M. Dupuis,
   K. G. Dyall, G. I. Fann, S. A. Fischer, A. Fonari, H. Fruchtl, L. Gagliardi,
      J. Garza, N. Gawande, S. Ghosh, K. Glaesemann, A. W. Gotz, J. Hammond,
       V. Helms, E. D. Hermes, K. Hirao, S. Hirata, M. Jacquelin, L. Jensen,
   B. G. Johnson, H. Jonsson, R. A. Kendall, M. Klemm, R. Kobayashi, V. Konkov,
      S. Krishnamoorthy, M. Krishnan, Z. Lin, R. D. Lins, R. J. Littlefield,
      A. J. Logsdail, K. Lopata, W. Ma, A. V. Marenich, J. Martin del Campo,
   D. Mejia-Rodriguez, J. E. Moore, J. M. Mullin, T. Nakajima, D. R. Nascimento,
    J. A. Nichols, P. J. Nichols, J. Nieplocha, A. Otero-de-la-Roza, B. Palmer,
    A. Panyala, T. Pirojsirikul, B. Peng, R. Peverati, J. Pittner, L. Pollack,
   R. M. Richard, P. Sadayappan, G. C. Schatz, W. A. Shelton, D. W. Silverstein,
   D. M. A. Smith, T. A. Soares, D. Song, M. Swart, H. L. Taylor, G. S. Thomas,
            V. Tipparaju, D. G. Truhlar, K. Tsemekhman, T. Van Voorhis,
      A. Vazquez-Mayagoitia, P. Verma, O. Villa, A. Vishnu, K. D. Vogiatzis,
        D. Wang, J. H. Weare, M. J. Williamson, T. L. Windus, K. Wolinski,
        A. T. Wong, Q. Wu, C. Yang, Q. Yu, M. Zacharias, Z. Zhang, Y. Zhao,
                                and R. J. Harrison
                        "NWChem: Past, present, and future
                         J. Chem. Phys. 152, 184102 (2020)
                               doi:10.1063/5.0004997

                                      AUTHORS
                                      -------
  E. Apra, E. J. Bylaska, N. Govind, K. Kowalski, M. Valiev, D. Mejia-Rodriguez,
       A. Kunitsa, N. P. Bauman, A. Panyala, W. A. de Jong, T. P. Straatsma,
   H. J. J. van Dam, D. Wang, T. L. Windus, J. Hammond, J. Autschbach, A. Woods,
    K. Bhaskaran-Nair, J. Brabec, K. Lopata, S. A. Fischer, S. Krishnamoorthy,
     M. Jacquelin, W. Ma, M. Klemm, O. Villa, Y. Chen, V. Anisimov, F. Aquino,
     S. Hirata, M. T. Hackler, E. Hermes, L. Jensen, J. E. Moore, J. C. Becca,
      V. Konjkov, T. Risthaus, M. Malagoli, A. Marenich, A. Otero-de-la-Roza,
        J. Mullin, P. Nichols, R. Peverati, J. Pittner, Y. Zhao, P.-D. Fan,
        A. Fonari, M. J. Williamson, R. J. Harrison, J. R. Rehr, M. Dupuis,
     D. Silverstein, D. M. A. Smith, J. Nieplocha, V. Tipparaju, M. Krishnan,
     B. E. Van Kuiken, A. Vazquez-Mayagoitia, M. Swart, Q. Wu, T. Van Voorhis,
     A. A. Auer, M. Nooijen, L. D. Crosby, E. Brown, G. Cisneros, G. I. Fann,
   H. Fruchtl, J. Garza, K. Hirao, R. A. Kendall, J. A. Nichols, K. Tsemekhman,
    K. Wolinski, J. Anchell, D. E. Bernholdt, P. Borowski, T. Clark, D. Clerc,
   H. Dachsel, M. J. O. Deegan, K. Dyall, D. Elwood, E. Glendening, M. Gutowski,
   A. C. Hess, J. Jaffe, B. G. Johnson, J. Ju, R. Kobayashi, R. Kutteh, Z. Lin,
   R. Littlefield, X. Long, B. Meng, T. Nakajima, S. Niu, L. Pollack, M. Rosing,
   K. Glaesemann, G. Sandrone, M. Stave, H. Taylor, G. Thomas, J. H. van Lenthe,
                               A. T. Wong, Z. Zhang.

 Total times  cpu:       33.4s     wall:       38.9s
