 argument  1 = /home/aditisingh4812/nw_chem/nwchem-run/nwchem-run/tddft/open/open_atom/geom-MOL-0.4/na.nw
                                         
                                         


             Northwest Computational Chemistry Package (NWChem) 7.2.3
             --------------------------------------------------------


                    Environmental Molecular Sciences Laboratory
                       Pacific Northwest National Laboratory
                                Richland, WA 99352

                              Copyright (c) 1994-2022
                       Pacific Northwest National Laboratory
                            Battelle Memorial Institute

             NWChem is an open-source computational chemistry package
                        distributed under the terms of the
                      Educational Community License (ECL) 2.0
             A copy of the license is included with this distribution
                              in the LICENSE.TXT file

                                  ACKNOWLEDGMENT
                                  --------------

            This software and its documentation were developed at the
            EMSL at Pacific Northwest National Laboratory, a multiprogram
            national laboratory, operated for the U.S. Department of Energy
            by Battelle under Contract Number DE-AC05-76RL01830. Support
            for this work was provided by the Department of Energy Office
            of Biological and Environmental Research, Office of Basic
            Energy Sciences, and the Office of Advanced Scientific Computing.


           Job information
           ---------------

    hostname        = p17
    program         = /home/aditisingh4812/nw_chem/nwchem-7.2.3-release.revision-d690e065-srconly.2024-08-27/nwchem-7.2.3/bin/LINUX64/nwchem
    date            = Thu Apr 24 11:20:01 2025

    compiled        = Mon_Apr_07_18:51:54_2025
    source          = /home/aditisingh4812/nw_chem/nwchem-7.2.3-release.revision-d690e065-srconly.2024-08-27/nwchem-7.2.3
    nwchem branch   = 7.2.3
    nwchem revision = d690e065
    ga revision     = 5.8.0
    use scalapack   = F
    input           = /home/aditisingh4812/nw_chem/nwchem-run/nwchem-run/tddft/open/open_atom/geom-MOL-0.4/na.nw
    prefix          = na.
    data base       = ./na.db
    status          = startup
    nproc           =        8
    time left       =     -1s



           Memory information
           ------------------

    heap     = 2621440000 doubles =  20000.0 Mbytes
    stack    = 2621439997 doubles =  20000.0 Mbytes
    global   = 6553600000 doubles =  50000.0 Mbytes (distinct from heap & stack)
    total    = ********** doubles =  90000.0 Mbytes
    verify   = yes
    hardfail = no 


           Directory information
           ---------------------

  0 permanent = .
  0 scratch   = .




                                NWChem Input Module
                                -------------------



 Scaling coordinates for geometry "geometry" by  1.889725989
 (inverse scale =  0.529177249)



                             Geometry "geometry" -> ""
                             -------------------------

 Output coordinates in angstroms (scale by  1.889725989 to convert to a.u.)

  No.       Tag          Charge          X              Y              Z
 ---- ---------------- ---------- -------------- -------------- --------------
    1 Na                  11.0000     0.00000000     0.00000000     0.00000000

      Atomic Mass 
      ----------- 

      Na                22.989800


 Effective nuclear repulsion energy (a.u.)       0.0000000000

            Nuclear Dipole moment (a.u.) 
            ----------------------------
        X                 Y               Z
 ---------------- ---------------- ----------------
     0.0000000000     0.0000000000     0.0000000000


            XYZ format geometry
            -------------------
     1
 geometry
 Na                    0.00000000     0.00000000     0.00000000



 Summary of "ao basis" -> "" (cartesian)
 ------------------------------------------------------------------------------
       Tag                 Description            Shells   Functions and Types
 ---------------- ------------------------------  ------  ---------------------
 *                        aug-cc-pVTZ                 on all atoms 


  pbe96 is a nonlocal functional; adding pw91lda local functional. 

                                 NWChem DFT Module
                                 -----------------


                      Basis "ao basis" -> "ao basis" (cartesian)
                      -----
  Na (Sodium)
  -----------
            Exponent  Coefficients 
       -------------- ---------------------------------------------------------
  1 S  4.23000000E+05  0.000018
  1 S  6.33400000E+04  0.000140
  1 S  1.44100000E+04  0.000738
  1 S  4.07700000E+03  0.003112
  1 S  1.32800000E+03  0.011208
  1 S  4.78600000E+02  0.035283
  1 S  1.86200000E+02  0.095990
  1 S  7.69200000E+01  0.213735
  1 S  3.33200000E+01  0.348688
  1 S  1.50000000E+01  0.324566
  1 S  6.86900000E+00  0.112633
  1 S  2.68300000E+00  0.007068
  1 S  1.10900000E+00  0.000598
  1 S  6.01500000E-02 -0.000005

  2 S  4.23000000E+05 -0.000004
  2 S  6.33400000E+04 -0.000034
  2 S  1.44100000E+04 -0.000180
  2 S  4.07700000E+03 -0.000764
  2 S  1.32800000E+03 -0.002752
  2 S  4.78600000E+02 -0.008860
  2 S  1.86200000E+02 -0.024794
  2 S  7.69200000E+01 -0.060600
  2 S  3.33200000E+01 -0.116446
  2 S  1.50000000E+01 -0.162437
  2 S  6.86900000E+00 -0.043889
  2 S  2.68300000E+00  0.337917
  2 S  1.10900000E+00  0.561347
  2 S  6.01500000E-02  0.004068

  3 S  4.23000000E+05  0.000001
  3 S  6.33400000E+04  0.000005
  3 S  1.44100000E+04  0.000027
  3 S  4.07700000E+03  0.000115
  3 S  1.32800000E+03  0.000415
  3 S  4.78600000E+02  0.001330
  3 S  1.86200000E+02  0.003756
  3 S  7.69200000E+01  0.009140
  3 S  3.33200000E+01  0.017986
  3 S  1.50000000E+01  0.025148
  3 S  6.86900000E+00  0.007635
  3 S  2.68300000E+00 -0.061459
  3 S  1.10900000E+00 -0.115721
  3 S  6.01500000E-02  0.626406

  4 S  4.54000000E-01  1.000000

  5 S  2.38200000E-02  1.000000

  6 S  6.65000000E-03  1.000000

  7 P  2.43300000E+02  0.002244
  7 P  5.73900000E+01  0.017400
  7 P  1.81000000E+01  0.077413
  7 P  6.57500000E+00  0.219102
  7 P  2.52100000E+00  0.378522
  7 P  9.60700000E-01  0.394902
  7 P  3.51200000E-01  0.160424
  7 P  9.82700000E-02  0.002333

  8 P  2.43300000E+02 -0.000222
  8 P  5.73900000E+01 -0.001743
  8 P  1.81000000E+01 -0.007755
  8 P  6.57500000E+00 -0.022519
  8 P  2.52100000E+00 -0.038433
  8 P  9.60700000E-01 -0.045018
  8 P  3.51200000E-01 -0.019213
  8 P  9.82700000E-02  0.182697

  9 P  3.73400000E-02  1.000000

 10 P  1.50000000E-02  1.000000

 11 P  7.00000000E-03  1.000000

 12 D  1.36700000E-01  1.000000

 13 D  6.36000000E-02  1.000000

 14 D  2.23000000E-02  1.000000

 15 F  1.39700000E-01  1.000000

 16 F  7.14000000E-02  1.000000



 Summary of "ao basis" -> "ao basis" (cartesian)
 ------------------------------------------------------------------------------
       Tag                 Description            Shells   Functions and Types
 ---------------- ------------------------------  ------  ---------------------
 Na                       aug-cc-pVTZ               16       59   6s5p3d2f




 Summary of "ao basis" -> "ao basis" (cartesian)
 ------------------------------------------------------------------------------
       Tag                 Description            Shells   Functions and Types
 ---------------- ------------------------------  ------  ---------------------
 Na                       aug-cc-pVTZ               16       59   6s5p3d2f




                         Geometry "geometry" -> "geometry"
                         ---------------------------------

 Output coordinates in angstroms (scale by  1.889725989 to convert to a.u.)

  No.       Tag          Charge          X              Y              Z
 ---- ---------------- ---------- -------------- -------------- --------------
    1 Na                  11.0000     0.00000000     0.00000000     0.00000000

      Atomic Mass 
      ----------- 

      Na                22.989800


 Effective nuclear repulsion energy (a.u.)       0.0000000000

            Nuclear Dipole moment (a.u.) 
            ----------------------------
        X                 Y               Z
 ---------------- ---------------- ----------------
     0.0000000000     0.0000000000     0.0000000000


                      Basis "ao basis" -> "ao basis" (cartesian)
                      -----
  Na (Sodium)
  -----------
            Exponent  Coefficients 
       -------------- ---------------------------------------------------------
  1 S  4.23000000E+05  0.213521
  1 S  6.33400000E+04  0.399616
  1 S  1.44100000E+04  0.692209
  1 S  4.07700000E+03  1.131605
  1 S  1.32800000E+03  1.757339
  1 S  4.78600000E+02  2.573164
  1 S  1.86200000E+02  3.448533
  1 S  7.69200000E+01  3.956672
  1 S  3.33200000E+01  3.446598
  1 S  1.50000000E+01  1.763179
  1 S  6.86900000E+00  0.340613
  1 S  2.68300000E+00  0.010561
  1 S  1.10900000E+00  0.000461
  1 S  6.01500000E-02 -0.000000

  2 S  4.23000000E+05 -0.065388
  2 S  6.33400000E+04 -0.122676
  2 S  1.44100000E+04 -0.211930
  2 S  4.07700000E+03 -0.348689
  2 S  1.32800000E+03 -0.541713
  2 S  4.78600000E+02 -0.811087
  2 S  1.86200000E+02 -1.118088
  2 S  7.69200000E+01 -1.408137
  2 S  3.33200000E+01 -1.444773
  2 S  1.50000000E+01 -1.107643
  2 S  6.86900000E+00 -0.166599
  2 S  2.68300000E+00  0.633756
  2 S  1.10900000E+00  0.542721
  2 S  6.01500000E-02  0.000442

  3 S  4.23000000E+05  0.012968
  3 S  6.33400000E+04  0.024283
  3 S  1.44100000E+04  0.042069
  3 S  4.07700000E+03  0.068971
  3 S  1.32800000E+03  0.107687
  3 S  4.78600000E+02  0.160454
  3 S  1.86200000E+02  0.223253
  3 S  7.69200000E+01  0.279949
  3 S  3.33200000E+01  0.294139
  3 S  1.50000000E+01  0.226026
  3 S  6.86900000E+00  0.038202
  3 S  2.68300000E+00 -0.151930
  3 S  1.10900000E+00 -0.147470
  3 S  6.01500000E-02  0.089717

  4 S  4.54000000E-01  0.394187

  5 S  2.38200000E-02  0.043213

  6 S  6.65000000E-03  0.016597

  7 P  2.43300000E+02  3.073934
  7 P  5.73900000E+01  3.918290
  7 P  1.81000000E+01  4.120205
  7 P  6.57500000E+00  3.288710
  7 P  2.52100000E+00  1.714221
  7 P  9.60700000E-01  0.535468
  7 P  3.51200000E-01  0.061833
  7 P  9.82700000E-02  0.000183

  8 P  2.43300000E+02 -1.630096
  8 P  5.73900000E+01 -2.099831
  8 P  1.81000000E+01 -2.208281
  8 P  6.57500000E+00 -1.808473
  8 P  2.52100000E+00 -0.931256
  8 P  9.60700000E-01 -0.326601
  8 P  3.51200000E-01 -0.039622
  8 P  9.82700000E-02  0.076675

  9 P  3.73400000E-02  0.023397

 10 P  1.50000000E-02  0.007483

 11 P  7.00000000E-03  0.002886

 12 D  1.36700000E-01  0.050583

 13 D  6.36000000E-02  0.013257

 14 D  2.23000000E-02  0.002118

 15 F  1.39700000E-01  0.017565

 16 F  7.14000000E-02  0.003879



    Basis function labels
    ---------------------
       No.  Atm El Type
       ---  --- -- ----
        1    1 Na s          
        2    1 Na s          
        3    1 Na s          
        4    1 Na s          
        5    1 Na s          
        6    1 Na s          
        7    1 Na px         
        8    1 Na py         
        9    1 Na pz         
       10    1 Na px         
       11    1 Na py         
       12    1 Na pz         
       13    1 Na px         
       14    1 Na py         
       15    1 Na pz         
       16    1 Na px         
       17    1 Na py         
       18    1 Na pz         
       19    1 Na px         
       20    1 Na py         
       21    1 Na pz         
       22    1 Na dxx        
       23    1 Na dxy        
       24    1 Na dxz        
       25    1 Na dyy        
       26    1 Na dyz        
       27    1 Na dzz        
       28    1 Na dxx        
       29    1 Na dxy        
       30    1 Na dxz        
       31    1 Na dyy        
       32    1 Na dyz        
       33    1 Na dzz        
       34    1 Na dxx        
       35    1 Na dxy        
       36    1 Na dxz        
       37    1 Na dyy        
       38    1 Na dyz        
       39    1 Na dzz        
       40    1 Na fxxx       
       41    1 Na fxxy       
       42    1 Na fxxz       
       43    1 Na fxyy       
       44    1 Na fxyz       
       45    1 Na fxzz       
       46    1 Na fyyy       
       47    1 Na fyyz       
       48    1 Na fyzz       
       49    1 Na fzzz       
       50    1 Na fxxx       
       51    1 Na fxxy       
       52    1 Na fxxz       
       53    1 Na fxyy       
       54    1 Na fxyz       
       55    1 Na fxzz       
       56    1 Na fyyy       
       57    1 Na fyyz       
       58    1 Na fyzz       
       59    1 Na fzzz       
  int_init: cando_txs set to always be  F

 Schwarz integral screening summary 
 ---------------------------------- 

        No. of atom pairs =       1
       No. of shell pairs =     136

 Atomic screening 

   value      no.     value      no.     value      no.     value      no.   
  -------- ------    -------- ------    -------- ------    -------- ------   
  0.00D+00      0    1.00D-13      0    1.00D-12      0    1.00D-11      0
  1.00D-10      0    1.00D-09      0    1.00D-08      0    1.00D-07      0
  1.00D-06      0    1.00D-05      0    1.00D-04      0    1.00D-03      0
  1.00D-02      0    1.00D-01      0    1.00D+00      1    1.00D+01      0


 Shell screening 

   value      no.     value      no.     value      no.     value      no.   
  -------- ------    -------- ------    -------- ------    -------- ------   
  0.00D+00      0    1.00D-13      0    1.00D-12      0    1.00D-11      0
  1.00D-10      0    1.00D-09      0    1.00D-08      0    1.00D-07      0
  1.00D-06      0    1.00D-05      1    1.00D-04      3    1.00D-03      5
  1.00D-02     13    1.00D-01     64    1.00D+00     50    1.00D+01      0


  Caching 1-el integrals 
  atom                     1  - neighbor  & S                     1   10.000000000000000       exp AB    7.0000000000000053E-003   7.0000000000000053E-003
 zmins =     0.007000000    0.007000000 lprod =   2 range =        41.13 acc   0.10D-07
 sh     0.000000000
  Center:                     1  Radial Pts. & Wghts. 
    1        0.000005461           4.8847605E-16
    2        0.000043685           1.2505074E-13
    3        0.000147437           3.2049747E-12
    4        0.000349484           3.2014783E-11
    5        0.000682597           1.9083461E-10
    6        0.001179554           8.2062858E-10
    7        0.001873147           2.8169303E-09
    8        0.002796186           8.1994567E-09
    9        0.003981504           2.1042605E-08
   10        0.005461967           4.8896430E-08
   11        0.007270480           1.0484855E-07
   12        0.009439998           2.1039888E-07
   13        0.012003536           3.9934119E-07
   14        0.014994178           7.2286859E-07
   15        0.018445096           1.2561442E-06
   16        0.022389556           2.1066040E-06
   17        0.026860937           3.4242850E-06
   18        0.031892745           5.4145030E-06
   19        0.037518629           8.3532331E-06
   20        0.043772403           1.2605582E-05
   21        0.050688060           1.8647774E-05
   22        0.058299794           2.7093125E-05
   23        0.066642022           3.8722499E-05
   24        0.075749406           5.4519822E-05
   25        0.085656879           7.5713251E-05
   26        0.096399665           1.0382268E-04
   27        0.108013313           1.4071434E-04
   28        0.120533717           1.8866321E-04
   29        0.133997154           2.5042431E-04
   30        0.148440308           3.2931369E-04
   31        0.163900307           4.2930028E-04
   32        0.180414756           5.5510981E-04
   33        0.198021773           7.1234214E-04
   34        0.216760030           9.0760341E-04
   35        0.236668789           1.1486547E-03
   36        0.257787947           1.4445791E-03
   37        0.280158083           1.8059689E-03
   38        0.303820499           2.2451359E-03
   39        0.328817274           2.7763460E-03
   40        0.355191317           3.4160828E-03
   41        0.382986419           4.1833412E-03
   42        0.412247313           5.0999562E-03
   43        0.443019735           6.1909704E-03
   44        0.475350492           7.4850438E-03
   45        0.509287525           9.0149121E-03
   46        0.544879987           1.0817898E-02
   47        0.582178318           1.2936482E-02
   48        0.621234327           1.5418943E-02
   49        0.662101281           1.8320068E-02
   50        0.704833993           2.1701950E-02
   51        0.749488924           2.5634879E-02
   52        0.796124285           3.0198341E-02
   53        0.844800149           3.5482126E-02
   54        0.895578570           4.1587587E-02
   55        0.948523710           4.8629031E-02
   56        1.003701971           5.6735289E-02
   57        1.061182144           6.6051484E-02
   58        1.121035560           7.6741001E-02
   59        1.183336258           8.8987716E-02
   60        1.248161163           1.0299849E-01
   61        1.315590275           1.1900602E-01
   62        1.385706877           1.3727195E-01
   63        1.458597758           1.5809055E-01
   64        1.534353449           1.8179271E-01
   65        1.613068479           2.0875054E-01
   66        1.694841662           2.3938262E-01
   67        1.779776392           2.7415986E-01
   68        1.867980971           3.1361223E-01
   69        1.959568969           3.5833645E-01
   70        2.054659607           4.0900462E-01
   71        2.153378181           4.6637430E-01
   72        2.255856517           5.3129978E-01
   73        2.362233480           6.0474526E-01
   74        2.472655517           6.8779976E-01
   75        2.587277265           7.8169445E-01
   76        2.706262207           8.8782255E-01
   77        2.829783408           1.0077623E+00
   78        2.958024311           1.1433038E+00
   79        3.091179629           1.2964797E+00
   80        3.229456324           1.4696014E+00
   81        3.373074702           1.6653012E+00
   82        3.522269619           1.8865813E+00
   83        3.677291837           2.1368719E+00
   84        3.838409530           2.4200990E+00
   85        4.005909980           2.7407648E+00
   86        4.180101471           3.1040430E+00
   87        4.361315435           3.5158918E+00
   88        4.549908864           3.9831895E+00
   89        4.746267054           4.5138958E+00
   90        4.950806718           5.1172469E+00
   91        5.163979538           5.8039905E+00
   92        5.386276237           6.5866716E+00
   93        5.618231249           7.4799804E+00
   94        5.860428115           8.5011791E+00
   95        6.113505738           9.6706278E+00
   96        6.378165649           1.1012436E+01
   97        6.655180525           1.2555275E+01
   98        6.945404184           1.4333400E+01
   99        7.249783410           1.6387933E+01
  100        7.569372002           1.8768512E+01
  101        7.905347586           2.1535393E+01
  102        8.259031856           2.4762173E+01
  103        8.631915124           2.8539362E+01
  104        9.025686336           3.2979075E+01
  105        9.442270067           3.8221311E+01
  106        9.883872550           4.4442419E+01
  107       10.353039530           5.1866680E+01
  108       10.852729761           6.0782376E+01
  109       11.386409537           7.1564426E+01
  110       11.958175917           8.4706849E+01
  111       12.572919773           1.0087021E+02
  112       13.236545164           1.2095252E+02
  113       13.956270164           1.4619770E+02
  114       14.741048342           1.7836642E+02
  115       15.602174062           2.2001375E+02
  116       16.554177116           2.7495744E+02
  117       17.616190308           3.4910356E+02
  118       18.814125936           4.5197981E+02
  119       20.184313254           5.9977128E+02
  120       21.779958931           8.2182848E+02
  121       23.683551133           1.1761245E+03
  122       26.033281446           1.7913838E+03
  123       29.088211732           3.0068756E+03
  124       33.429945630           6.0063078E+03
  125       40.914334107           1.8139838E+04
     irreducible set of Lebedev Angular points ;
  0.009523809523810  1.000000000000000  0.000000000000000  0.000000000000000
  0.032142857142857  0.577350269189626  0.577350269189626  0.577350269189626
  0.028571428571429  0.459700843380983  0.000000000000000  0.888073833977115
   total no. of   reducible points:  38; test:  1.00000000
  0.012698412698413  1.000000000000000  0.000000000000000  0.000000000000000
  0.022574955908289  0.707106781186547  0.707106781186547  0.000000000000000
  0.021093750000000  0.577350269189626  0.577350269189626  0.577350269189626
  0.020173335537919  0.301511344577764  0.301511344577764  0.904534033733291
   total no. of   reducible points:  50; test:  1.00000000
  0.000513067179734  1.000000000000000  0.000000000000000  0.000000000000000
  0.016604069565742  0.707106781186547  0.707106781186547  0.000000000000000
 -0.029586038961039  0.577350269189626  0.577350269189626  0.577350269189626
  0.026576207082159  0.480384461415261  0.480384461415261  0.733799385705343
  0.016522170993716  0.320772648980776  0.000000000000000  0.947156221362588
   total no. of   reducible points:  74; test:  1.00000000
  0.011544011544012  1.000000000000000  0.000000000000000  0.000000000000000
  0.011943909085856  0.577350269189626  0.577350269189626  0.577350269189626
  0.011110555710603  0.369602846454150  0.369602846454150  0.852518311701268
  0.011876501294537  0.694354006602666  0.694354006602666  0.189063552885395
  0.011812303746904  0.374243039090341  0.000000000000000  0.927330657151172
   total no. of   reducible points:  86; test:  1.00000000
  0.003828270494937  1.000000000000000  0.000000000000000  0.000000000000000
  0.009793737512488  0.577350269189626  0.577350269189626  0.577350269189626
  0.008211737283191  0.185115635344736  0.185115635344736  0.965124035086594
  0.009942814891178  0.690421048382292  0.690421048382292  0.215957291845848
  0.009595471336071  0.395689473055942  0.395689473055942  0.828769981252592
  0.009694996361663  0.478369028812150  0.000000000000000  0.878158910604066
   total no. of   reducible points: 110; test:  1.00000000
  0.000599631368862  1.000000000000000  0.000000000000000  0.000000000000000
  0.007372999718621  0.707106781186547  0.707106781186547  0.000000000000000
  0.007210515360144  0.577350269189626  0.577350269189626  0.577350269189626
  0.007116355493118  0.676441040011426  0.676441040011426  0.291298882209527
  0.006753829486314  0.417496122796545  0.417496122796545  0.807089818359583
  0.007574394159054  0.157467667203908  0.157467667203908  0.974888643677173
  0.006991087353303  0.140355381171318  0.449332832326956  0.882270011260323
   total no. of   reducible points: 146; test:  1.00000000
  0.005544842902037  1.000000000000000  0.000000000000000  0.000000000000000
  0.006071332770671  0.707106781186547  0.707106781186547  0.000000000000000
  0.006383674773515  0.577350269189626  0.577350269189626  0.577350269189626
  0.005183387587748  0.255125262111413  0.255125262111413  0.932642590312691
  0.006317929009814  0.674360146036277  0.674360146036277  0.300793595137701
  0.006201670006589  0.431891069671941  0.431891069671941  0.791795559393492
  0.005477143385137  0.261393136033599  0.000000000000000  0.965232421976448
  0.005968383987681  0.499045316179604  0.144663074432512  0.854415804684659
   total no. of   reducible points: 170; test:  1.00000000
  0.001782340447245  1.000000000000000  0.000000000000000  0.000000000000000
  0.005716905949977  0.707106781186547  0.707106781186547  0.000000000000000
  0.005573383178849  0.577350269189626  0.577350269189626  0.577350269189626
  0.005608704082588  0.671297344269523  0.671297344269523  0.314196994182586
  0.005158237711805  0.289246562757544  0.289246562757544  0.912509096867474
  0.005518771467274  0.444693317871744  0.444693317871744  0.777493219314767
  0.004106777028169  0.129933544765007  0.129933544765007  0.982972302707253
  0.005051846064615  0.345770219761128  0.000000000000000  0.938319218137592
  0.005530248916233  0.159041710538353  0.836036015482459  0.525118572443642
   total no. of   reducible points: 194; test:  1.00000000
 -0.055226399197273  1.000000000000000  0.000000000000000  0.000000000000000
  0.004450274607445  0.577350269189626  0.577350269189626  0.577350269189626
  0.004496841067921  0.449204468739761  0.449204468739761  0.772289253148364
  0.005049153450479  0.252041949021020  0.252041949021020  0.934317778845812
  0.003976408018052  0.698190665844724  0.698190665844724  0.158302205463478
  0.004401400650381  0.658740524346096  0.658740524346096  0.363485684956727
  0.017245443505444  0.040385440500977  0.040385440500977  0.998367683967727
  0.004231083095357  0.582384230971558  0.000000000000000  0.812913653173365
  0.005198069864064  0.354587739051869  0.000000000000000  0.935022745880593
  0.004695720972569  0.227218180899819  0.486466153588665  0.843636521068894
   total no. of   reducible points: 230; test:  1.00000000
 -0.001313769127327  1.000000000000000  0.000000000000000  0.000000000000000
 -0.002522728704859  0.707106781186547  0.707106781186547  0.000000000000000
  0.004186853881701  0.577350269189626  0.577350269189626  0.577350269189626
  0.005315167977811  0.703937339158548  0.703937339158548  0.094575076403713
  0.004047142377086  0.101252624857241  0.101252624857241  0.989694807462905
  0.004112482394407  0.464744872642054  0.464744872642054  0.753673939250816
  0.003595584899759  0.327742065497163  0.327742065497163  0.886098344997499
  0.004256131351428  0.662033866369997  0.662033866369997  0.351315128564633
  0.004229582700647  0.850650808352040  0.000000000000000  0.525731112119134
  0.004080914225781  0.323348454269290  0.115311201100970  0.939227929749916
  0.004071467593831  0.231479015871260  0.524493924092236  0.819343388819120
   total no. of   reducible points: 266; test:  1.00000000
  0.000854591172513  1.000000000000000  0.000000000000000  0.000000000000000
  0.003599119285026  0.577350269189626  0.577350269189626  0.577350269189626
  0.003449788424306  0.351564034557011  0.351564034557011  0.867643624544083
  0.003604822601420  0.656632941021961  0.656632941021961  0.371034178384821
  0.003576729661743  0.472905413258100  0.472905413258100  0.743452042987556
  0.002352101413689  0.096183085226148  0.096183085226148  0.990705621379408
  0.003108953122414  0.221964523629418  0.221964523629418  0.949454317226443
  0.003650045807677  0.701176641608955  0.701176641608955  0.129238672710514
  0.002982344963172  0.264415288706066  0.000000000000000  0.964408914879206
  0.003600820932216  0.571895589187896  0.000000000000000  0.820326419827759
  0.003571540554273  0.251003475177047  0.800072749407395  0.544867737258077
  0.003392312205006  0.123354853258333  0.412772408316853  0.902442529533000
   total no. of   reducible points: 302; test:  1.00000000
  0.003006796749454  1.000000000000000  0.000000000000000  0.000000000000000
  0.003050627745651  0.577350269189626  0.577350269189626  0.577350269189626
  0.001621104600289  0.706896546391232  0.706896546391232  0.024383301669356
  0.003005701484902  0.479468262571203  0.479468262571203  0.734996850587746
  0.002990992529654  0.192753315487802  0.192753315487802  0.962129055136014
  0.002982170644108  0.693035796132712  0.693035796132712  0.198501311223365
  0.002721564237311  0.360830211552009  0.360830211552009  0.860001812127547
  0.003033513795811  0.649848616149617  0.649848616149617  0.394199888605839
  0.003007949555219  0.193294501323034  0.000000000000000  0.981140782843257
  0.002881964603055  0.380049491989930  0.000000000000000  0.924966152698679
  0.002958357626536  0.289955882549957  0.793453785658232  0.535123047718276
  0.003036020026407  0.096841214551040  0.828080150668686  0.552182074349399
  0.002832187403926  0.183343464704166  0.907465826530513  0.378009189874487
   total no. of   reducible points: 350; test:  1.00000000
  0.000526589796822  1.000000000000000  0.000000000000000  0.000000000000000
  0.002548219972003  0.707106781186547  0.707106781186547  0.000000000000000
  0.002512317418927  0.577350269189626  0.577350269189626  0.577350269189626
  0.002530403801186  0.690934630750911  0.690934630750911  0.212646824707552
  0.002014279020919  0.177483605460916  0.177483605460916  0.967987158791473
  0.002501725168403  0.491434263778475  0.491434263778475  0.719016501040843
  0.002513267174598  0.645666470742426  0.645666470742426  0.407712664897770
  0.002302694782227  0.286128901030764  0.286128901030764  0.914472801120872
  0.001462495621595  0.075680843671780  0.075680843671780  0.994255912631278
  0.002445373437313  0.392725976336800  0.392725976336800  0.831584400419232
  0.002417442375639  0.881813287779429  0.000000000000000  0.471598691151316
  0.001910951282180  0.977642811118265  0.000000000000000  0.210272522857307
  0.002416930044325  0.205482369640304  0.868946032287241  0.450233038258263
  0.002512236854563  0.590515704892527  0.799927854385729  0.106801826075805
  0.002496644054553  0.555015236107681  0.771746262691590  0.310428403516654
  0.002236607760438  0.937180985855372  0.334436314534346  0.099217696364292
   total no. of   reducible points: 434; test:  1.00000000
  0.000309512129531  1.000000000000000  0.000000000000000  0.000000000000000
  0.001852379698597  0.577350269189626  0.577350269189626  0.577350269189626
  0.001871790639278  0.704095493822747  0.704095493822747  0.092190407076898
  0.001858812585438  0.680774406645524  0.680774406645524  0.270356088359165
  0.001852028828296  0.637254693925875  0.637254693925875  0.433373868777154
  0.001846715956151  0.504441970780036  0.504441970780036  0.700768575373573
  0.001818471778163  0.421576178401097  0.421576178401097  0.802836877335274
  0.001749564657281  0.331792073647212  0.331792073647212  0.883078727934133
  0.001617210647254  0.238473670142189  0.238473670142189  0.941414158220403
  0.001384737234852  0.145903644915776  0.145903644915776  0.978480583762694
  0.000976433116505  0.060950341155072  0.060950341155072  0.996278129754016
  0.001857161196774  0.611684344200988  0.000000000000000  0.791101929626902
  0.001705153996396  0.396475534819986  0.000000000000000  0.918045287711454
  0.001300321685886  0.172478200990772  0.000000000000000  0.985013335028002
  0.001842866472905  0.561026380862206  0.351828092773352  0.749310611904116
  0.001802658934377  0.474239284255198  0.263471665593795  0.840047488359050
  0.001849830560444  0.598412649788538  0.181664084036021  0.780320742479920
  0.001713904507107  0.379103540769556  0.172079522565688  0.909213475092374
  0.001555213603397  0.277867319058624  0.082130215819325  0.957102074310073
  0.001802239128009  0.503356427107512  0.089992058420749  0.859379855890721
   total no. of   reducible points: 590; test:  1.00000000
  0.000219294208818  1.000000000000000  0.000000000000000  0.000000000000000
  0.001436433617319  0.707106781186547  0.707106781186547  0.000000000000000
  0.001421940344336  0.577350269189626  0.577350269189626  0.577350269189626
  0.000679812351105  0.050872044105024  0.050872044105024  0.997408677652823
  0.000991318423529  0.122819879017883  0.122819879017883  0.984799753572301
  0.001180207833239  0.202689081440879  0.202689081440879  0.958036675983391
  0.001296599602081  0.284774515646429  0.284774515646429  0.915317950483155
  0.001365871427428  0.365671907897803  0.365671907897803  0.855901928697887
  0.001402988604775  0.442826488671347  0.442826488671347  0.779621319527635
  0.001418645563596  0.514061962724974  0.514061962724974  0.686644447264154
  0.001421376741852  0.630640121916680  0.630640121916680  0.452311920313658
  0.001423996475491  0.671688333202261  0.671688333202261  0.312521305001653
  0.001431554042179  0.697979268533688  0.697979268533688  0.160155803498829
  0.000925440149987  0.144686567419531  0.000000000000000  0.989477537495599
  0.001250239995054  0.339026347541122  0.000000000000000  0.940776878793759
  0.001394365843329  0.533580465126351  0.000000000000000  0.845749305193653
  0.001127089094672  0.069440243933494  0.235518789424233  0.969385863498432
  0.001345753760911  0.226900410952946  0.410218247404573  0.883310360522113
  0.001424957283317  0.080255746077753  0.621430241748161  0.779348105702661
  0.001261523341238  0.146799952789657  0.324528434571739  0.934414827052402
  0.001392547106053  0.157150776982473  0.522448218969663  0.838064133458312
  0.001418761677878  0.236570299315725  0.601754663408956  0.762840624604670
  0.001338366684480  0.077148158667657  0.434657551614116  0.897285336132833
  0.001393700862676  0.306293666621073  0.490882658903762  0.815609223203975
  0.001415914757467  0.382247737952479  0.564876814909950  0.731300793659766
   total no. of   reducible points: 770; test:  1.00000000
  0.000143829419053  1.000000000000000  0.000000000000000  0.000000000000000
  0.001125772288287  0.577350269189626  0.577350269189626  0.577350269189626
  0.000494802934195  0.042929635453413  0.042929635453413  0.998155345023847
  0.000735799010913  0.105142685408640  0.105142685408640  0.988883224354686
  0.000888913277130  0.175002486762309  0.175002486762309  0.968890220434707
  0.000988834783892  0.247765337965026  0.247765337965026  0.936602730407163
  0.001053299681709  0.320656712395596  0.320656712395596  0.891267942647606
  0.001092778807015  0.391652074984998  0.391652074984998  0.832596723702352
  0.001114389394063  0.459082587418762  0.459082587418762  0.760582905315251
  0.001123724788052  0.521456388841586  0.521456388841586  0.675400969108414
  0.001125239325244  0.625317024465420  0.625317024465420  0.466858905695743
  0.001126153271816  0.663792674452317  0.663792674452317  0.344613654237438
  0.001130286931124  0.691041039849830  0.691041039849830  0.211954151850184
  0.001134986534364  0.705290700745776  0.705290700745776  0.071624401449956
  0.000682336792711  0.123668676265799  0.000000000000000  0.992323565431490
  0.000945415816045  0.294077711446839  0.000000000000000  0.955781512496548
  0.001074429975386  0.469775384920765  0.000000000000000  0.882785980701182
  0.001129300086569  0.633456324113957  0.000000000000000  0.773778447257375
  0.000843688450090  0.059740486141813  0.202912875277752  0.977372722845310
  0.001075255720449  0.137576040847364  0.460262194248405  0.877058461865803
  0.001108577236864  0.339101652633629  0.503067399966204  0.794942299964208
  0.000956647532378  0.127167519143982  0.281760642244213  0.951020169374390
  0.001080663250717  0.269312074041351  0.433156129172016  0.860143461601762
  0.001126797131196  0.141978645260192  0.625616735858081  0.767102186220558
  0.001022568715358  0.067092846007383  0.379839521685916  0.922616110730809
  0.001108960267713  0.070577381832562  0.551750542142352  0.831017552413474
  0.001122790653436  0.278388847788215  0.602961915615919  0.747620610834086
  0.001032401847117  0.197957893891741  0.358960632958910  0.912118378409121
  0.001107249382284  0.208730706110327  0.534866643813548  0.818748536281022
  0.001121780048520  0.405512213787284  0.567499754607437  0.716591845467024
   total no. of   reducible points: 974; test:  1.00000000
  0.000110518923327  1.000000000000000  0.000000000000000  0.000000000000000
  0.000920523273809  0.707106781186547  0.707106781186547  0.000000000000000
  0.000913315978644  0.577350269189626  0.577350269189626  0.577350269189626
  0.000369042189802  0.037126364496571  0.037126364496571  0.998620681799919
  0.000560399092868  0.091400604122622  0.091400604122622  0.991610739722014
  0.000686529762928  0.153107785246991  0.153107785246991  0.976276606394685
  0.000772033855115  0.218092889166061  0.218092889166061  0.951247067480579
  0.000830154595889  0.283987453220018  0.283987453220018  0.915806886208668
  0.000868669255018  0.349117760096376  0.349117760096376  0.869616915181954
  0.000892707628585  0.412143146144431  0.412143146144431  0.812573722299916
  0.000906082023857  0.471899362714913  0.471899362714913  0.744729469632107
  0.000911977725494  0.527314545284234  0.527314545284234  0.666242253736104
  0.000912872013860  0.620947533244402  0.620947533244402  0.478380938076952
  0.000913071493569  0.656972271185729  0.656972271185729  0.369830866459426
  0.000915287378455  0.684178830907014  0.684178830907014  0.252583955700718
  0.000918743627432  0.701260433012363  0.701260433012363  0.128326186659723
  0.000517697731297  0.107238221547817  0.000000000000000  0.994233354821322
  0.000733114368210  0.258206895949697  0.000000000000000  0.966089643296119
  0.000846323283638  0.417275295530672  0.000000000000000  0.908780131681911
  0.000903112269425  0.570036691179250  0.000000000000000  0.821619237061433
  0.000648577845316  0.982798601826395  0.177177402261533  0.052106394770113
  0.000743503091098  0.962424923032623  0.247571646342629  0.111564095715648
  0.000799852789184  0.940200799412881  0.335461628906649  0.059058888532354
  0.000810173149747  0.932082204014320  0.317361524661198  0.174655167757863
  0.000848338957459  0.904367419939330  0.409026842708536  0.121723505109599
  0.000855629925731  0.891240756007475  0.385429115066922  0.239027847938172
  0.000880320867974  0.867643562846271  0.493222118485128  0.062662506241542
  0.000881104818243  0.858197998604162  0.478532067592243  0.185750519454734
  0.000885028234127  0.839675362404986  0.450742259315706  0.302946697352898
  0.000902134229904  0.816528856402219  0.563212302076210  0.126777480068428
  0.000901009167711  0.801546937078353  0.543430356969390  0.249411216236224
  0.000902269293843  0.777356306907035  0.512351848641987  0.364983226059765
  0.000915801617469  0.766162121390039  0.639427963474910  0.064245492242208
  0.000913157800319  0.755358414353351  0.626980550902439  0.190601822277923
  0.000910781357948  0.734430575755950  0.603116169309631  0.311227594714961
  0.000910576025897  0.704383718402177  0.569370249846844  0.423864478152234
   total no. of   reducible points:1202; test:  1.00000000
  0.000077771607433  1.000000000000000  0.000000000000000  0.000000000000000
  0.000755764641300  0.577350269189626  0.577350269189626  0.577350269189626
  0.000284163380609  0.032292906634139  0.032292906634139  0.998956623864238
  0.000437441912705  0.080367332714622  0.080367332714622  0.993520097262594
  0.000541717474087  0.135428996053165  0.135428996053165  0.981487633165117
  0.000614800089136  0.193896386111443  0.193896386111443  0.961669580940275
  0.000666439448580  0.253734371501127  0.253734371501127  0.933401166400522
  0.000702503935692  0.313525143475257  0.313525143475257  0.896328047546008
  0.000726851178925  0.372155833937534  0.372155833937534  0.850294108254619
  0.000742263753421  0.428680957519570  0.428680957519570  0.795276853253136
  0.000750954503584  0.482251012828299  0.482251012828299  0.731346649169981
  0.000754853505772  0.532067933356626  0.532067933356626  0.658640591360127
  0.000755408896977  0.617299819539427  0.617299819539427  0.487731345715221
  0.000755314717444  0.651067984912748  0.651067984912748  0.390155043595885
  0.000756476765329  0.677731525168736  0.677731525168736  0.285236672931301
  0.000758799180852  0.696310941064874  0.696310941064874  0.174075117999957
  0.000760826183203  0.705893500983175  0.705893500983175  0.058555363028785
  0.000402168044787  0.995554619409186  0.000000000000000  0.094185985013862
  0.000580487179395  0.973411590179421  0.000000000000000  0.229063039585986
  0.000679215195595  0.927569373238863  0.000000000000000  0.373650983980055
  0.000733674121129  0.856802242279510  0.000000000000000  0.515645147000147
  0.000758186630099  0.762349555371937  0.000000000000000  0.647165477620840
  0.000753825785980  0.570752290889222  0.438702803988950  0.694104943230444
  0.000748351724705  0.519646338840308  0.385890841476262  0.762270254565011
  0.000737176366111  0.464633753121535  0.330193737234385  0.821637128756598
  0.000718344889576  0.406390169755769  0.272542357356378  0.872105322408083
  0.000689581552982  0.345632946664309  0.213951023749525  0.913653558859526
  0.000648010580179  0.283139512105033  0.155592230978665  0.946373644151191
  0.000589755889659  0.219768202292533  0.098928789796861  0.970523071240677
  0.000509570884925  0.156469609865035  0.045986429106755  0.986611630545015
  0.000753690642891  0.602735667372129  0.337662514017343  0.722975616397235
  0.000747250596558  0.549603232025510  0.282230130972799  0.786309379645309
  0.000734301713228  0.492170775523457  0.224863234259254  0.840954489612314
  0.000713087158218  0.430942299859848  0.166622472345648  0.886862833757808
  0.000681702203211  0.366410818231367  0.108696490182217  0.924082347686118
  0.000638094114560  0.299018905775844  0.052519897841201  0.952800794667682
  0.000755038137792  0.626872401314500  0.229752365755002  0.744476220506856
  0.000747864664014  0.570732414483461  0.172308060709380  0.802853936449496
  0.000733591872060  0.509636090196037  0.114023846539051  0.852801042441985
  0.000711012052766  0.443872993831246  0.056115220958825  0.894330949550573
  0.000757136397869  0.641997847108239  0.116417442314087  0.757816431224233
  0.000748990832908  0.581721806180261  0.057975895314452  0.811319009870262
   total no. of   reducible points:1454; test:  1.00000000
  qrot: 

              1        2        3      
    1    1.0000   0.0000   0.0000
    2    0.0000   1.0000   0.0000
    3    0.0000   0.0000   1.0000
  me                     0   done genpts
  me                     1   done genpts
  me                     2   done genpts
  me                     3   done genpts
  me                     4   done genpts
  me                     5   done genpts
  me                     6   done genpts
  me                     7   done genpts
  me                     0   done uprt
  me                     1   done uprt
  me                     2   done uprt
  me                     3   done uprt
  me                     4   done uprt
  me                     5   done uprt
  me                     6   done uprt
  me                     7   done uprt
  me                     0  done mem
  me                     1  done mem
  me                     2  done mem
  me                     3  done mem
  me                     4  done mem
  me                     5  done mem
  me                     6  done mem
  me                     7  done mem
  dftinpanae: itol2e                     8  iaoacc                    14  tol_rho    1.0000000000000000E-010

            General Information
            -------------------
          SCF calculation type: DFT
          Wavefunction type:  spin polarized.
          No. of atoms     :     1
          No. of electrons :    11
           Alpha electrons :     6
            Beta electrons :     5
          Charge           :     0
          Spin multiplicity:     2
          Use of symmetry is: off; symmetry adaption is: off
          Maximum number of iterations:  50
          AO basis - number of functions:    59
                     number of shells:    16
          Convergence on energy requested:  1.00D-06
          Convergence on density requested:  1.00D-05
          Convergence on gradient requested:  5.00D-04

              XC Information
              --------------
                     Hartree-Fock (Exact) Exchange  1.000          
                     LC-wPBE(h)Exchange Functional  1.000          
            Perdew 1991 LDA Correlation Functional  1.000 local    
           PerdewBurkeErnz. Correlation Functional  1.000 non-local

           Range-Separation Parameters        
           ---------------------------
           Alpha           :  0.00
           Beta            :  1.00
           Gamma           :  0.40
           Short-Range HF  :     F

             Grid Information
             ----------------
          Grid used for XC integration:  xfine     
          Radial quadrature: Mura-Knowles        
          Angular quadrature: Lebedev. 
          Tag              B.-S. Rad. Rad. Pts. Rad. Cut. Ang. Pts.
          ---              ---------- --------- --------- ---------
          Na                  1.80      125          22.0      1454
          Grid pruning is: on 
          Number of quadrature shells:   125
          Spatial weights used:  Erf1

          Convergence Information
          -----------------------
          Convergence aids based upon iterative change in 
          total energy or number of iterations. 
          Levelshifting, if invoked, occurs when the 
          HOMO/LUMO gap drops below (HL_TOL):  1.00D-02
          DIIS, if invoked, will attempt to extrapolate 
          using up to (NFOCK): 10 stored Fock matrices.

                    Damping( 0%)  Levelshifting(0.5)       DIIS
                  --------------- ------------------- ---------------
          dE  on:    start            ASAP                start   
          dE off:    2 iters         50 iters            50 iters 


      Screening Tolerance Information
      -------------------------------
          Density screening/tol_rho:  1.00D-10
          AO Gaussian exp screening on grid/accAOfunc:  14
          CD Gaussian exp screening on grid/accCDfunc:  20
          XC Gaussian exp screening on grid/accXCfunc:  20
          Schwarz screening/accCoul:  1.00D-08



                         Geometry "geometry" -> "geometry"
                         ---------------------------------

 Output coordinates in angstroms (scale by  1.889725989 to convert to a.u.)

  No.       Tag          Charge          X              Y              Z
 ---- ---------------- ---------- -------------- -------------- --------------
    1 Na                  11.0000     0.00000000     0.00000000     0.00000000

      Atomic Mass 
      ----------- 

      Na                22.989800


 Effective nuclear repulsion energy (a.u.)       0.0000000000

            Nuclear Dipole moment (a.u.) 
            ----------------------------
        X                 Y               Z
 ---------------- ---------------- ----------------
     0.0000000000     0.0000000000     0.0000000000

  
  CAM type calculations without CDFIT are
  only available with the direct option.
  Forcing Direct SCF
  


     <<<<<<    Before call to DFT_SCF.    >>>>>>
     <<<<<< date:  Apr 24  time: 11:20:01 >>>>>>


 Setting tolerance for linear dependence to 1.00D-05


 Setting tolerance for linear dependence to 1.00D-05

 Setting tolerance for linear dependence to 1.00D-05


 Setting tolerance for linear dependence to 1.00D-05

 Setting tolerance for linear dependence to 1.00D-05

 Setting tolerance for linear dependence to 1.00D-05
 Setting tolerance for linear dependence to 1.00D-05
 Setting tolerance for linear dependence to 1.00D-05
  lindep tolerance =    1.0000000000000001E-005
  lindep tolerance =    1.0000000000000001E-005
  lindep tolerance =    1.0000000000000001E-005
  lindep tolerance =    1.0000000000000001E-005
  lindep tolerance =    1.0000000000000001E-005
  lindep tolerance =    1.0000000000000001E-005
  lindep tolerance =    1.0000000000000001E-005
  lindep tolerance =    1.0000000000000001E-005


     <<<<<<    Before 3c-2e initialize.   >>>>>>
     <<<<<< date:  Apr 24  time: 11:20:01 >>>>>>


 Setting fock-build task_bf   :      -1
                    maxquartet:   10000
                    maxeri    :  129600
                    maxscr    :       0
                    intacc    : 0.0D+00
                    denscreen : T
                    dentol    : 1.0D-06


      Superposition of Atomic Density Guess
      -------------------------------------

 Sum of atomic energies:        -161.85799798

      Non-variational initial energy
      ------------------------------

 Total energy =    -161.804187
 1-e energy   =    -227.873827
 2-e energy   =      66.069640
 HOMO         =      -0.077015
 LUMO         =       0.012581


 Setting fock-build task_bf   :      -1
                    maxquartet:   10000
                    maxeri    :  129600
                    maxscr    :       0
                    intacc    : 0.0D+00
                    denscreen : T
                    dentol    : 1.0D-06


 Wrote molecular orbitals to ./na.movecs

  WARNING: movecs_in_org=atomic not equal to movecs_in=./na.movecs
   Time after variat. SCF:      1.3

 Setting fock-build task_bf   :      -1
                    maxquartet:   10000
                    maxeri    :  129600
                    maxscr    :       0
                    intacc    : 0.0D+00
                    denscreen : T
                    dentol    : 1.0D-06

   Time prior to 1st pass:      1.3


     <<<<<<      Before SCF iter loop.    >>>>>>
     <<<<<< date:  Apr 24  time: 11:20:02 >>>>>>

           DAMPING=T LEVELSHIFTING=F DIISING=T
          itol2e= 8 iAOacc=12 iXCacc=20


     <<<<<<            calling 1-e int    >>>>>>
     <<<<<< date:  Apr 24  time: 11:20:02 >>>>>>

    Kinetic Matrix Time:          0.0s

           Kinetic energy =    161.815208709238

    Potential Matrix Time:          0.0s


     <<<<<<    Before call to GETVXC.     >>>>>>
     <<<<<< date:  Apr 24  time: 11:20:02 >>>>>>



     <<<<<<    Before call to fock_2e.    >>>>>>
     <<<<<< date:  Apr 24  time: 11:20:02 >>>>>>



     <<<<<<     After call to fock_2e.    >>>>>>
     <<<<<< date:  Apr 24  time: 11:20:03 >>>>>>

    Fock_2e Build Time:          0.2s
  *** grid_quadv0:                    calc_type:                    1
  *** grid_quadv0:                    grid_written: F
  *** grid_quadv0:                    grad: T
  *** grid_quadv0:                    kske: F
  *** grid_quadv0:                    kslap: F
  *** grid_quadv0:                    do_scf: T
  *** grid_quadv0:                    fde_option:                    0
  *** grid_quadv0:                    n_per_rec:                 3070
  *** grid_quadv0:                    calc_type:                    1
  *** grid_quadv0:                    grid_written: F
  *** grid_quadv0:                    grad: T
  *** grid_quadv0:                    kske: F
  *** grid_quadv0:                    kslap: F
  *** grid_quadv0:                    calc_type:                    1
  *** grid_quadv0:                    grid_written: F
  *** grid_quadv0:                    grad: T
  *** grid_quadv0:                    kske: F
  *** grid_quadv0:                    kslap: F
  *** grid_quadv0:                    do_scf: T
  *** grid_quadv0:                    fde_option:                    0
  *** grid_quadv0:                    calc_type:                    1
  *** grid_quadv0:                    grid_written: F
  *** grid_quadv0:                    grad: T
  *** grid_quadv0:                    kske: F
  *** grid_quadv0:                    kslap: F
  *** grid_quadv0:                    do_scf: T
  *** grid_quadv0:                    fde_option:                    0
  *** grid_quadv0:                    n_per_rec:                 3070
  *** grid_quadv0:                    calc_type:                    1
  *** grid_quadv0:                    grid_written: F
  *** grid_quadv0:                    grad: T
  *** grid_quadv0:                    kske: F
  *** grid_quadv0:                    kslap: F
  *** grid_quadv0:                    do_scf: T
  *** grid_quadv0:                    fde_option:                    0
  *** grid_quadv0:                    n_per_rec:                 3070
  *** grid_quadv0:                    calc_type:                    1
  *** grid_quadv0:                    grid_written: F
  *** grid_quadv0:                    grad: T
  *** grid_quadv0:                    kske: F
  *** grid_quadv0:                    kslap: F
  *** grid_quadv0:                    do_scf: T
  *** grid_quadv0:                    fde_option:                    0
  *** grid_quadv0:                    n_per_rec:                 3070
  *** grid_quadv0:                    do_scf: T
  *** grid_quadv0:                    fde_option:                    0
  *** grid_quadv0:                    n_per_rec:                 3070
  *** grid_quadv0:                    calc_type:                    1
  *** grid_quadv0:                    grid_written: F
  *** grid_quadv0:                    grad: T
  *** grid_quadv0:                    kske: F
  *** grid_quadv0:                    kslap: F
  *** grid_quadv0:                    do_scf: T
  *** grid_quadv0:                    fde_option:                    0
  *** grid_quadv0:                    n_per_rec:                 3070
  *** grid_quadv0:                    n_per_rec:                 3070
  *** grid_quadv0:                    calc_type:                    1
  *** grid_quadv0:                    grid_written: F
  *** grid_quadv0:                    grad: T
  *** grid_quadv0:                    kske: F
  *** grid_quadv0:                    kslap: F
  *** grid_quadv0:                    do_scf: T
  *** grid_quadv0:                    fde_option:                    0
  *** grid_quadv0:                    n_per_rec:                 3070
   0: nuse=   8 avail= 12500000Mb on .
   1: nuse=   8 avail= 12500000Mb on .
   2: nuse=   8 avail= 12500000Mb on .
   3: nuse=   8 avail= 12500000Mb on .
   4: nuse=   8 avail= 12500000Mb on .
   5: nuse=   8 avail= 12500000Mb on .
   6: nuse=   8 avail= 12500000Mb on .
   7: nuse=   8 avail= 12500000Mb on .
 l_cube input   11.00

  atom type   l_cube   no. cubes   segmts   rad   sub
 ----------- -------- ----------- -------- ----- -----
        1     11.71       282         7      41     8

 Grid_pts file          = ./na.gridpts.0
 Record size in doubles =  12289        No. of grid_pts per rec  =   3070
 Max. records in memory =     10        Max. recs in file   = 126656358

 me   0 NQTOTC NQ/cube   17243     123
 me   1 NQTOTC NQ/cube    9421     303
 me   2 NQTOTC NQ/cube   10576     755
 me   3 NQTOTC NQ/cube   10598     460
 me   4 NQTOTC NQ/cube   10601     963
 me   5 NQTOTC NQ/cube   10258     569
 me   6 NQTOTC NQ/cube   10105     481
 me   7 NQTOTC NQ/cube    8520     355

 XC quadr. integrated density :      11.000000 npts:    86742 nctrs:        1

    Fock_xc Build Time:          0.1s


     <<<<<<    Before call to GETVCOUL.   >>>>>>
     <<<<<< date:  Apr 24  time: 11:20:03 >>>>>>



     <<<<<<    End of parallel region.    >>>>>>
     <<<<<< date:  Apr 24  time: 11:20:03 >>>>>>

    Total Fock Matrix Build Time:          0.4s
 Etnew, Ecore, Ecoul, Exc(1), Exc(2), Totsic:   -162.19133571294924       -227.64550406159020        79.794191110895468       -14.340022762254492        0.0000000000000000        0.0000000000000000     
  delta =   -162.19133571294924     
  delta =   -162.19133571294924     
  delta =   -162.19133571294924     


         Total DFT energy =     -162.191335712949
      One electron energy =     -227.645504061590
           Coulomb energy =       79.794191110895
    Exchange-Corr. energy =      -14.340022762254
 Nuclear repulsion energy =        0.000000000000

 Numeric. integr. density =       10.999999998684

     Total iterative time =      2.5s




  delta =   -162.19133571294924     
  delta =   -162.19133571294924     
  delta =   -162.19133571294924     
  delta =   -162.19133571294924     
  delta =   -162.19133571294924     
     <<<<<<        calling diis driver    >>>>>>
     <<<<<< date:  Apr 24  time: 11:20:03 >>>>>>

 nhist                     1  pulay matrix 
   0.0000E+00
  -1.0000E+00   4.3828E-02


     <<<<<<         called diis driver    >>>>>>
     <<<<<< date:  Apr 24  time: 11:20:03 >>>>>>


 global array: fock transf[1:59,1:59],  handle: -940 

            1           2           3           4           5           6  
       ----------- ----------- ----------- ----------- ----------- -----------
   1       1.23526     0.00000    -0.00000     0.00000    -1.16430    -0.00000
   2       0.00000     0.49621    -0.00000     0.00000     0.00000    -0.00000
   3      -0.00000    -0.00000     0.49621    -0.00000    -0.00000     0.00000
   4       0.00000     0.00000    -0.00000     0.49621     0.00000     0.00000
   5      -1.16430     0.00000    -0.00000     0.00000     1.93399    -0.00000
   6      -0.00000    -0.00000     0.00000     0.00000    -0.00000     0.58598
   7      -0.00000    -0.21842     0.14751     0.16474    -0.00000    -0.00000
   8      -0.00000     0.19697     0.02455     0.23917    -0.00000    -0.00000
   9      -0.00000    -0.10050    -0.27247     0.11073    -0.00000    -0.00000
  10       0.00000    -0.00000    -0.00000    -0.00000    -0.00000     0.00000
  11       0.00000     0.00000     0.00000     0.00000    -0.00000    -0.00000
  12      -0.00000     0.00000    -0.00000    -0.00000    -0.00000    -0.00000
  13       0.00000     0.00000    -0.00000    -0.00000     0.00000     0.00000
  14       0.00000    -0.00000    -0.00000     0.00000     0.00000     0.00000
  15       0.00000     0.00000     0.00000     0.00000    -0.00000     0.00000
  16      -0.00000     0.00333     0.05142     0.00816    -0.00000     0.00000
  17       0.00000     0.05006    -0.00540     0.01364     0.00000    -0.00000
  18       0.00000    -0.01429    -0.00696     0.04969     0.00000    -0.00000
  19      -0.05551     0.00000    -0.00000     0.00000     0.36665     0.00000
  20       0.00000     0.00919    -0.05722    -0.03166     0.00000    -0.00000
  21       0.00000     0.00814    -0.03072     0.05789     0.00000     0.00000
  22       0.00000     0.06488     0.01196    -0.00278     0.00000     0.00000
  23       0.00000     0.00000    -0.00000     0.00000     0.00000     0.00000
  24       0.00000     0.00000    -0.00000     0.00000     0.00000    -0.00000
  25      -0.00000    -0.00000     0.00000     0.00000     0.00000     0.20247
  26      -0.37405    -0.00000     0.00000    -0.00000     0.81141     0.00000
  27      -0.00000     0.00000     0.00000     0.00000    -0.00000     0.00000
  28       0.00000     0.00000     0.00000     0.00000     0.00000     0.00000
  29      -0.00000     0.00000    -0.00000    -0.00000     0.00000    -0.00000
  30       0.00000     0.00000    -0.00000    -0.00000    -0.00000    -0.00000
  31      -0.00000    -0.00000    -0.00000    -0.00000    -0.00000     0.00000
  32       0.00000     0.00000    -0.00000    -0.00000    -0.00000     0.00000
  33      -0.21646     0.00000    -0.00000     0.00000     0.25997    -0.00000
  34       0.00000    -0.02571     0.00164    -0.06627     0.00000     0.00000
  35       0.00000     0.01863     0.06839    -0.00554     0.00000     0.00000
  36      -0.00000     0.06362    -0.01937    -0.02516    -0.00000     0.00000
  37       0.00000    -0.01095    -0.04404    -0.02250     0.00000     0.00000
  38       0.00000    -0.00808     0.02433    -0.04369     0.00000     0.00000
  39       0.00000    -0.04879     0.00586     0.01229     0.00000    -0.00000
  40      -0.00000    -0.00000     0.00000    -0.00000    -0.00000     0.00000
  41      -0.00000    -0.00000     0.00000    -0.00000    -0.00000     0.00000
  42       0.00000     0.00000     0.00000     0.00000    -0.00000     0.00000
  43       0.00000     0.00000    -0.00000    -0.00000     0.00000     0.00000
  44       0.00000    -0.00000    -0.00000     0.00000    -0.00000     0.00000
  45      -0.08396     0.00000    -0.00000     0.00000     0.18626     0.00000
  46      -0.00000    -0.00973     0.01126    -0.01860    -0.00000     0.00000
  47       0.00000    -0.01662    -0.01699    -0.00159     0.00000     0.00000
  48      -0.00000     0.01402    -0.01232    -0.01480    -0.00000     0.00000
  49      -0.00000     0.01386     0.00157    -0.00910    -0.00000     0.00000
  50      -0.00000    -0.00311    -0.01466    -0.00726    -0.00000    -0.00000
  51      -0.00000    -0.00869     0.00774    -0.01191    -0.00000    -0.00000
  52       0.00000     0.00000    -0.00000     0.00000     0.00000    -0.00000
  53       0.00000     0.00000    -0.00000     0.00000     0.00000     0.00000
  54       0.03809    -0.00000     0.00000    -0.00000    -0.07970    -0.00000
  55      -0.08681    -0.00000     0.00000    -0.00000     0.15067     0.00000
  56       0.00000    -0.00857     0.00184     0.00110     0.00000     0.00000
  57       0.00000    -0.00010     0.00420    -0.00777     0.00000     0.00000
  58      -0.00000     0.00214     0.00756     0.00405    -0.00000    -0.00000
  59      -0.02300     0.00000    -0.00000     0.00000     0.04317    -0.00000

            7           8           9          10          11          12  
       ----------- ----------- ----------- ----------- ----------- -----------
   1      -0.00000    -0.00000    -0.00000     0.00000     0.00000    -0.00000
   2      -0.21842     0.19697    -0.10050    -0.00000     0.00000     0.00000
   3       0.14751     0.02455    -0.27247    -0.00000     0.00000    -0.00000
   4       0.16474     0.23917     0.11073    -0.00000     0.00000    -0.00000
   5      -0.00000    -0.00000    -0.00000    -0.00000    -0.00000    -0.00000
   6      -0.00000    -0.00000    -0.00000     0.00000    -0.00000    -0.00000
   7       0.75470     0.00000     0.00000     0.00000    -0.00000     0.00000
   8       0.00000     0.75470     0.00000     0.00000    -0.00000    -0.00000
   9       0.00000     0.00000     0.75470    -0.00000     0.00000     0.00000
  10       0.00000     0.00000    -0.00000     0.58598    -0.00000    -0.00000
  11      -0.00000    -0.00000     0.00000    -0.00000     0.58598    -0.00000
  12       0.00000    -0.00000     0.00000    -0.00000    -0.00000     0.58598
  13       0.00000     0.00000    -0.00000     0.00000    -0.00000     0.00000
  14      -0.00000     0.00000    -0.00000     0.00000     0.00000    -0.00000
  15      -0.00000    -0.00000     0.00000    -0.00000     0.00000     0.00000
  16       0.05740     0.02707    -0.09406    -0.00000     0.00000     0.00000
  17      -0.06637     0.09091    -0.01433    -0.00000     0.00000     0.00000
  18       0.07194     0.06227     0.06182    -0.00000     0.00000    -0.00000
  19      -0.00000    -0.00000    -0.00000     0.00000    -0.00000     0.00000
  20       0.12414     0.05680    -0.08847    -0.00000     0.00000    -0.00000
  21      -0.02557    -0.11646    -0.11066    -0.00000     0.00000     0.00000
  22       0.10198    -0.09835     0.07994     0.00000    -0.00000    -0.00000
  23      -0.00000    -0.00000    -0.00000     0.00000     0.00000     0.00000
  24      -0.00000    -0.00000    -0.00000    -0.00000    -0.00000    -0.00000
  25       0.00000     0.00000    -0.00000     0.00000     0.00000    -0.00000
  26       0.00000     0.00000     0.00000    -0.00000     0.00000     0.00000
  27      -0.00000    -0.00000     0.00000    -0.10474    -0.17318     0.00545
  28      -0.00000    -0.00000     0.00000     0.16915    -0.10358    -0.04063
  29       0.00000    -0.00000     0.00000    -0.03754     0.01647    -0.19827
  30       0.00000     0.00000    -0.00000     0.00000    -0.00000     0.00000
  31       0.00000     0.00000    -0.00000     0.00000    -0.00000    -0.00000
  32       0.00000    -0.00000     0.00000     0.00000    -0.00000     0.00000
  33      -0.00000    -0.00000    -0.00000    -0.00000     0.00000    -0.00000
  34      -0.00167    -0.00687    -0.00171    -0.00000     0.00000     0.00000
  35       0.00168     0.00133    -0.00696     0.00000    -0.00000    -0.00000
  36      -0.00688     0.00199    -0.00129    -0.00000     0.00000    -0.00000
  37      -0.01626    -0.01795     0.02209    -0.00000     0.00000     0.00000
  38      -0.00384    -0.02383    -0.02218     0.00000    -0.00000    -0.00000
  39       0.02820    -0.01359     0.00972    -0.00000    -0.00000     0.00000
  40       0.00000     0.00000     0.00000    -0.00000    -0.00000    -0.00000
  41       0.00000     0.00000     0.00000     0.00000     0.00000     0.00000
  42       0.00000    -0.00000     0.00000    -0.00000     0.00000     0.00000
  43       0.00000     0.00000    -0.00000     0.00000    -0.00000     0.00000
  44      -0.00000     0.00000    -0.00000     0.00000     0.00000    -0.00000
  45      -0.00000    -0.00000    -0.00000     0.00000     0.00000     0.00000
  46       0.00700    -0.05896    -0.04018     0.00000     0.00000    -0.00000
  47       0.00833    -0.03943     0.05930     0.00000    -0.00000    -0.00000
  48      -0.07086    -0.01046     0.00300     0.00000    -0.00000     0.00000
  49      -0.00148     0.00020    -0.00098    -0.00000    -0.00000     0.00000
  50      -0.00092    -0.00094     0.00121     0.00000    -0.00000    -0.00000
  51       0.00037    -0.00151    -0.00088     0.00000     0.00000    -0.00000
  52      -0.00000    -0.00000    -0.00000     0.00000     0.00000     0.00000
  53      -0.00000    -0.00000    -0.00000    -0.00000    -0.00000    -0.00000
  54       0.00000     0.00000     0.00000     0.00000    -0.00000    -0.00000
  55       0.00000     0.00000     0.00000    -0.00000     0.00000    -0.00000
  56       0.02543    -0.01511     0.00528    -0.00000    -0.00000     0.00000
  57      -0.00701    -0.01943    -0.02183     0.00000    -0.00000    -0.00000
  58       0.01439     0.01724    -0.01996     0.00000    -0.00000    -0.00000
  59      -0.00000    -0.00000    -0.00000    -0.00000     0.00000    -0.00000

           13          14          15          16          17          18  
       ----------- ----------- ----------- ----------- ----------- -----------
   1       0.00000     0.00000     0.00000    -0.00000     0.00000     0.00000
   2       0.00000    -0.00000     0.00000     0.00333     0.05006    -0.01429
   3      -0.00000    -0.00000     0.00000     0.05142    -0.00540    -0.00696
   4      -0.00000     0.00000     0.00000     0.00816     0.01364     0.04969
   5       0.00000     0.00000    -0.00000    -0.00000     0.00000     0.00000
   6       0.00000     0.00000     0.00000     0.00000    -0.00000    -0.00000
   7       0.00000    -0.00000    -0.00000     0.05740    -0.06637     0.07194
   8       0.00000     0.00000    -0.00000     0.02707     0.09091     0.06227
   9      -0.00000    -0.00000     0.00000    -0.09406    -0.01433     0.06182
  10       0.00000     0.00000    -0.00000    -0.00000    -0.00000    -0.00000
  11      -0.00000     0.00000     0.00000     0.00000     0.00000     0.00000
  12       0.00000    -0.00000     0.00000     0.00000     0.00000    -0.00000
  13       0.41865    -0.00000    -0.00000    -0.00000     0.00000    -0.00000
  14      -0.00000     0.41865    -0.00000    -0.00000    -0.00000     0.00000
  15      -0.00000    -0.00000     0.41865     0.00000     0.00000     0.00000
  16      -0.00000    -0.00000     0.00000     0.57507    -0.00000    -0.00000
  17       0.00000    -0.00000     0.00000    -0.00000     0.57507     0.00000
  18      -0.00000     0.00000     0.00000    -0.00000     0.00000     0.57507
  19       0.00000    -0.00000    -0.00000    -0.00000     0.00000     0.00000
  20       0.00000    -0.00000    -0.00000    -0.07962     0.00847    -0.03281
  21      -0.00000     0.00000    -0.00000    -0.02714     0.03424     0.07469
  22       0.00000    -0.00000     0.00000     0.02029     0.07902    -0.02885
  23       0.00000    -0.00000    -0.00000    -0.00000     0.00000     0.00000
  24       0.00000    -0.00000    -0.00000    -0.00000     0.00000     0.00000
  25      -0.00000    -0.00000    -0.00000    -0.00000     0.00000     0.00000
  26       0.00000    -0.00000    -0.00000     0.00000    -0.00000    -0.00000
  27      -0.00000     0.00000     0.00000     0.00000     0.00000     0.00000
  28      -0.00000    -0.00000     0.00000     0.00000     0.00000     0.00000
  29       0.00000    -0.00000     0.00000    -0.00000     0.00000    -0.00000
  30       0.11898     0.05824     0.09253    -0.00000    -0.00000    -0.00000
  31      -0.08444    -0.03791     0.13245    -0.00000    -0.00000    -0.00000
  32      -0.06945     0.14588    -0.00252    -0.00000     0.00000    -0.00000
  33       0.00000     0.00000    -0.00000    -0.00000     0.00000     0.00000
  34      -0.00000    -0.00000     0.00000    -0.01735    -0.07043    -0.09403
  35       0.00000     0.00000    -0.00000     0.11313     0.01561    -0.03257
  36      -0.00000     0.00000     0.00000    -0.03168     0.09434    -0.06481
  37      -0.00000    -0.00000     0.00000     0.12860     0.03195     0.03391
  38      -0.00000     0.00000    -0.00000    -0.04492     0.05859     0.11515
  39       0.00000    -0.00000     0.00000    -0.01237     0.11940    -0.06558
  40       0.00000    -0.00000    -0.00000     0.00000    -0.00000    -0.00000
  41       0.00000    -0.00000    -0.00000     0.00000    -0.00000    -0.00000
  42       0.03252    -0.00866     0.04312     0.00000     0.00000    -0.00000
  43       0.04306    -0.00460    -0.03341    -0.00000     0.00000    -0.00000
  44       0.00891     0.05381     0.00408    -0.00000    -0.00000     0.00000
  45       0.00000     0.00000    -0.00000    -0.00000     0.00000     0.00000
  46      -0.00000     0.00000    -0.00000     0.02946    -0.05981    -0.06441
  47       0.00000     0.00000    -0.00000    -0.07028    -0.05683     0.02063
  48       0.00000    -0.00000    -0.00000    -0.05280     0.04228    -0.06341
  49       0.00000    -0.00000     0.00000    -0.00018    -0.00197     0.00232
  50       0.00000     0.00000    -0.00000     0.00289     0.00062     0.00075
  51      -0.00000     0.00000    -0.00000    -0.00096     0.00225     0.00183
  52      -0.00000     0.00000     0.00000    -0.00000     0.00000     0.00000
  53       0.00000    -0.00000    -0.00000    -0.00000     0.00000     0.00000
  54       0.00000     0.00000    -0.00000     0.00000    -0.00000    -0.00000
  55      -0.00000     0.00000     0.00000     0.00000    -0.00000    -0.00000
  56       0.00000    -0.00000     0.00000     0.00470    -0.02661     0.01031
  57      -0.00000     0.00000    -0.00000     0.00954    -0.00838    -0.02599
  58       0.00000     0.00000    -0.00000     0.02690     0.00762     0.00742
  59      -0.00000     0.00000     0.00000    -0.00000     0.00000     0.00000

           19          20          21          22          23          24  
       ----------- ----------- ----------- ----------- ----------- -----------
   1      -0.05551     0.00000     0.00000     0.00000     0.00000     0.00000
   2       0.00000     0.00919     0.00814     0.06488     0.00000     0.00000
   3      -0.00000    -0.05722    -0.03072     0.01196    -0.00000    -0.00000
   4       0.00000    -0.03166     0.05789    -0.00278     0.00000     0.00000
   5       0.36665     0.00000     0.00000     0.00000     0.00000     0.00000
   6       0.00000    -0.00000     0.00000     0.00000     0.00000    -0.00000
   7      -0.00000     0.12414    -0.02557     0.10198    -0.00000    -0.00000
   8      -0.00000     0.05680    -0.11646    -0.09835    -0.00000    -0.00000
   9      -0.00000    -0.08847    -0.11066     0.07994    -0.00000    -0.00000
  10       0.00000    -0.00000    -0.00000     0.00000     0.00000    -0.00000
  11      -0.00000     0.00000     0.00000    -0.00000     0.00000    -0.00000
  12       0.00000    -0.00000     0.00000    -0.00000     0.00000    -0.00000
  13       0.00000     0.00000    -0.00000     0.00000     0.00000     0.00000
  14      -0.00000    -0.00000     0.00000    -0.00000    -0.00000    -0.00000
  15      -0.00000    -0.00000    -0.00000     0.00000    -0.00000    -0.00000
  16      -0.00000    -0.07962    -0.02714     0.02029    -0.00000    -0.00000
  17       0.00000     0.00847     0.03424     0.07902     0.00000     0.00000
  18       0.00000    -0.03281     0.07469    -0.02885     0.00000     0.00000
  19       0.26885     0.00000     0.00000     0.00000     0.00000     0.00000
  20       0.00000     0.23749     0.00000     0.00000     0.00000     0.00000
  21       0.00000     0.00000     0.23749     0.00000     0.00000     0.00000
  22       0.00000     0.00000     0.00000     0.23749     0.00000     0.00000
  23       0.00000     0.00000     0.00000     0.00000     0.41865     0.00000
  24       0.00000     0.00000     0.00000     0.00000     0.00000     0.41865
  25       0.00000    -0.00000    -0.00000     0.00000     0.00000     0.00000
  26       0.40552    -0.00000    -0.00000    -0.00000    -0.00000    -0.00000
  27       0.00000     0.00000    -0.00000    -0.00000     0.00000    -0.00000
  28      -0.00000     0.00000     0.00000    -0.00000    -0.00000     0.00000
  29      -0.00000    -0.00000     0.00000    -0.00000     0.00000    -0.00000
  30      -0.00000     0.00000    -0.00000    -0.00000    -0.00000    -0.00000
  31      -0.00000     0.00000     0.00000    -0.00000    -0.00000     0.00000
  32      -0.00000     0.00000    -0.00000     0.00000     0.00000     0.00000
  33       0.02005     0.00000     0.00000     0.00000     0.00000     0.00000
  34       0.00000     0.05737    -0.13287    -0.04750     0.00000     0.00000
  35       0.00000    -0.11572    -0.07364     0.06625     0.00000     0.00000
  36      -0.00000     0.08075    -0.01113     0.12868    -0.00000    -0.00000
  37       0.00000     0.00431    -0.00005    -0.00162     0.00000     0.00000
  38       0.00000    -0.00011    -0.00460    -0.00015     0.00000     0.00000
  39       0.00000    -0.00161     0.00018    -0.00431     0.00000     0.00000
  40      -0.00000    -0.00000    -0.00000    -0.00000     0.15471     0.04666
  41      -0.00000    -0.00000    -0.00000    -0.00000    -0.04666     0.15471
  42       0.00000    -0.00000    -0.00000     0.00000    -0.00000    -0.00000
  43       0.00000     0.00000    -0.00000    -0.00000     0.00000    -0.00000
  44      -0.00000    -0.00000     0.00000    -0.00000    -0.00000     0.00000
  45       0.30511     0.00000     0.00000     0.00000     0.00000     0.00000
  46      -0.00000     0.00203     0.02100     0.00622    -0.00000    -0.00000
  47       0.00000    -0.01217    -0.00412     0.01786     0.00000     0.00000
  48      -0.00000    -0.01821     0.00509    -0.01124    -0.00000    -0.00000
  49      -0.00000     0.00858    -0.01216     0.02483    -0.00000    -0.00000
  50      -0.00000     0.02738     0.00012    -0.00940    -0.00000    -0.00000
  51      -0.00000    -0.00384    -0.02627    -0.01154    -0.00000    -0.00000
  52       0.00000     0.00000     0.00000     0.00000     0.03562    -0.04151
  53       0.00000     0.00000     0.00000     0.00000     0.04151     0.03562
  54      -0.07833    -0.00000    -0.00000    -0.00000    -0.00000    -0.00000
  55       0.09221    -0.00000    -0.00000    -0.00000    -0.00000    -0.00000
  56       0.00000     0.00010     0.00003     0.00024     0.00000     0.00000
  57       0.00000    -0.00000     0.00026    -0.00003     0.00000     0.00000
  58      -0.00000     0.00024    -0.00001    -0.00010    -0.00000    -0.00000
  59       0.01532     0.00000     0.00000     0.00000     0.00000     0.00000

           25          26          27          28          29          30  
       ----------- ----------- ----------- ----------- ----------- -----------
   1      -0.00000    -0.37405    -0.00000     0.00000    -0.00000     0.00000
   2      -0.00000    -0.00000     0.00000     0.00000     0.00000     0.00000
   3       0.00000     0.00000     0.00000     0.00000    -0.00000    -0.00000
   4       0.00000    -0.00000     0.00000     0.00000    -0.00000    -0.00000
   5       0.00000     0.81141    -0.00000     0.00000     0.00000    -0.00000
   6       0.20247     0.00000     0.00000     0.00000    -0.00000    -0.00000
   7       0.00000     0.00000    -0.00000    -0.00000     0.00000     0.00000
   8       0.00000     0.00000    -0.00000    -0.00000    -0.00000     0.00000
   9      -0.00000     0.00000     0.00000     0.00000     0.00000    -0.00000
  10       0.00000    -0.00000    -0.10474     0.16915    -0.03754     0.00000
  11       0.00000     0.00000    -0.17318    -0.10358     0.01647    -0.00000
  12      -0.00000     0.00000     0.00545    -0.04063    -0.19827     0.00000
  13      -0.00000     0.00000    -0.00000    -0.00000     0.00000     0.11898
  14      -0.00000    -0.00000     0.00000    -0.00000    -0.00000     0.05824
  15      -0.00000    -0.00000     0.00000     0.00000     0.00000     0.09253
  16      -0.00000     0.00000     0.00000     0.00000    -0.00000    -0.00000
  17       0.00000    -0.00000     0.00000     0.00000     0.00000    -0.00000
  18       0.00000    -0.00000     0.00000     0.00000    -0.00000    -0.00000
  19       0.00000     0.40552     0.00000    -0.00000    -0.00000    -0.00000
  20      -0.00000    -0.00000     0.00000     0.00000    -0.00000     0.00000
  21      -0.00000    -0.00000    -0.00000     0.00000     0.00000    -0.00000
  22       0.00000    -0.00000    -0.00000    -0.00000    -0.00000    -0.00000
  23       0.00000    -0.00000     0.00000    -0.00000     0.00000    -0.00000
  24       0.00000    -0.00000    -0.00000     0.00000    -0.00000    -0.00000
  25       0.38198     0.00000    -0.00000    -0.00000     0.00000     0.00000
  26       0.00000     1.03545     0.00000     0.00000    -0.00000     0.00000
  27      -0.00000     0.00000     0.38198     0.00000    -0.00000    -0.00000
  28      -0.00000     0.00000     0.00000     0.38198     0.00000    -0.00000
  29       0.00000    -0.00000    -0.00000     0.00000     0.38198     0.00000
  30       0.00000     0.00000    -0.00000    -0.00000     0.00000     0.22341
  31      -0.00000    -0.00000    -0.00000    -0.00000    -0.00000     0.00000
  32      -0.00000    -0.00000    -0.00000     0.00000     0.00000     0.00000
  33      -0.00000     0.22585    -0.00000    -0.00000     0.00000    -0.00000
  34      -0.00000    -0.00000     0.00000     0.00000    -0.00000    -0.00000
  35      -0.00000    -0.00000    -0.00000    -0.00000    -0.00000     0.00000
  36       0.00000     0.00000     0.00000    -0.00000    -0.00000    -0.00000
  37       0.00000    -0.00000     0.00000     0.00000    -0.00000    -0.00000
  38       0.00000    -0.00000    -0.00000    -0.00000    -0.00000     0.00000
  39       0.00000    -0.00000    -0.00000     0.00000     0.00000     0.00000
  40       0.00000     0.00000    -0.00000     0.00000    -0.00000     0.00000
  41       0.00000     0.00000     0.00000    -0.00000     0.00000     0.00000
  42      -0.00000    -0.00000     0.00000     0.00000     0.00000     0.09440
  43      -0.00000     0.00000    -0.00000    -0.00000     0.00000     0.02265
  44      -0.00000    -0.00000     0.00000    -0.00000    -0.00000     0.05869
  45       0.00000     2.16321     0.00000     0.00000    -0.00000     0.00000
  46       0.00000     0.00000     0.00000    -0.00000    -0.00000    -0.00000
  47      -0.00000    -0.00000    -0.00000    -0.00000    -0.00000     0.00000
  48       0.00000     0.00000    -0.00000    -0.00000     0.00000     0.00000
  49      -0.00000     0.00000    -0.00000     0.00000     0.00000     0.00000
  50       0.00000     0.00000    -0.00000    -0.00000     0.00000     0.00000
  51      -0.00000     0.00000     0.00000    -0.00000    -0.00000    -0.00000
  52       0.00000    -0.00000     0.00000    -0.00000     0.00000    -0.00000
  53      -0.00000    -0.00000    -0.00000     0.00000    -0.00000     0.00000
  54      -0.00000    -0.43932    -0.00000    -0.00000     0.00000     0.00000
  55      -0.00000     0.49897     0.00000     0.00000    -0.00000    -0.00000
  56      -0.00000    -0.00000    -0.00000     0.00000     0.00000     0.00000
  57       0.00000    -0.00000    -0.00000    -0.00000    -0.00000    -0.00000
[...]
  28      -0.00000     0.00000     0.00000     0.00000     0.00000     0.00000
  29       0.00000    -0.00000    -0.00000     0.00000    -0.00000    -0.00000
  30       0.00000     0.00000    -0.00000     0.00000    -0.00000     0.00000
  31       0.00000     0.00000    -0.00000    -0.00000    -0.00000    -0.00000
  32       0.00000    -0.00000     0.00000     0.00000    -0.00000     0.00000
  33      -0.00000    -0.00000    -0.00000    -0.00000     0.00000     0.00000
  34       0.00000    -0.00000    -0.00000    -0.00000    -0.00000    -0.00000
  35      -0.00000     0.00000     0.00000    -0.00000     0.00000     0.00000
  36      -0.00000    -0.00000     0.00000    -0.00000     0.00000    -0.00000
  37      -0.00000    -0.00000     0.00000     0.00000     0.00000     0.00000
  38      -0.00000     0.00000    -0.00000    -0.00000     0.00000    -0.00000
  39       0.00000     0.00000     0.00000     0.00000    -0.00000    -0.00000
  40      -0.07003     0.00042     0.10371    -0.95020     0.00042     0.00000
  41      -0.00003     3.02235     0.00139     0.00209     2.34315     0.00000
  42       3.69682     0.00032    -0.95058    -0.10383     0.00033     0.00000
  43       0.00017    -0.00157    -0.41471     3.80170    -0.00113    -0.00000
  44      -0.00000     0.00000     0.00000     0.00000    -0.00000     6.04668
  45       0.20991     0.00032     0.10358    -0.95110    -0.00013    -0.00000
  46       0.00003     0.00066    -0.00033    -0.00050    -1.56125    -0.00000
  47       0.00019    -0.00130     3.80170     0.41471    -0.00094    -0.00000
  48      -0.00005    -3.02433    -0.00039    -0.00059     2.34059     0.00000
  49      -1.23234     0.00033    -0.95037    -0.10363     0.00021     0.00000
  50       0.04514    -0.00027    -0.06686     0.61253    -0.00027    -0.00000
  51       0.00002    -1.94830    -0.00090    -0.00135    -1.51046    -0.00000
  52      -2.38308    -0.00020     0.61278     0.06693    -0.00021    -0.00000
  53      -0.00011     0.00101     0.26734    -2.45069     0.00073     0.00000
  54       0.00000    -0.00000    -0.00000    -0.00000     0.00000    -3.89788
  55      -0.13532    -0.00021    -0.06677     0.61311     0.00009     0.00000
  56      -0.00002    -0.00043     0.00021     0.00032     1.00643     0.00000
  57      -0.00012     0.00084    -2.45069    -0.26734     0.00061     0.00000
  58       0.00003     1.94958     0.00025     0.00038    -1.50882    -0.00000
  59       0.79440    -0.00021     0.61264     0.06680    -0.00013    -0.00000

           55          56          57          58          59  
       ----------- ----------- ----------- ----------- -----------
   1       0.24904     0.00000     0.00000    -0.00034     1.00384
   2       2.93608     0.00000     0.00000    -0.00408     6.30481
   3      13.17642     0.00000     0.00000    -0.01836    15.90276
   4      -1.80539    -0.00000    -0.00000     0.00245    -6.51784
   5      -8.76334    -0.00000    -0.00000     0.01253    -3.64339
   6      -0.63298    -0.00000    -0.00000     0.00092    -0.34768
   7       0.00000    -0.18841     3.11826     0.00000    -0.00000
   8       0.00424     0.00001    -0.00000     3.12394    -0.00005
   9      -0.00000     3.11826     0.18841    -0.00001     0.00000
  10       0.00000    -0.39333     6.50965     0.00000    -0.00000
  11       0.00889     0.00001    -0.00000     6.52151    -0.00009
  12      -0.00000     6.50965     0.39333    -0.00001     0.00000
  13      -0.00000     0.35828    -5.92962    -0.00000     0.00000
  14      -0.00769    -0.00001     0.00000    -5.94043     0.00020
  15       0.00000    -5.92962    -0.35828     0.00001    -0.00000
  16       0.00000    -0.07899     1.30737     0.00000    -0.00000
  17       0.00164     0.00000    -0.00000     1.30975    -0.00006
  18      -0.00000     1.30737     0.07899    -0.00000     0.00000
  19      -0.00000     0.02190    -0.36243    -0.00000     0.00000
  20      -0.00044    -0.00000     0.00000    -0.36310     0.00002
  21       0.00000    -0.36243    -0.02190     0.00000    -0.00000
  22      -3.58991    -0.00000    -0.00000     0.00496    -4.28849
  23      -0.00000     0.00000    -0.00000    -0.00000    -0.00000
  24      -0.00000    -0.00000     0.00000    -0.00000    -0.00000
  25      -3.58991    -0.00000    -0.00000     0.00496    -4.28849
  26       0.00000    -0.00000    -0.00000     0.00000     0.00000
  27      -3.58991    -0.00000    -0.00000     0.00496    -4.28849
  28       0.97539     0.00000     0.00000    -0.00143    -1.05308
  29       0.00000    -0.00000     0.00000     0.00000     0.00000
  30       0.00000     0.00000    -0.00000    -0.00000     0.00000
  31       0.97539     0.00000     0.00000    -0.00143    -1.05308
  32      -0.00000     0.00000     0.00000    -0.00000    -0.00000
  33       0.97539     0.00000     0.00000    -0.00143    -1.05308
  34       1.45323     0.00000     0.00000    -0.00209     0.68855
  35      -0.00000     0.00000    -0.00000    -0.00000    -0.00000
  36      -0.00000    -0.00000     0.00000     0.00000    -0.00000
  37       1.45323     0.00000     0.00000    -0.00209     0.68855
  38       0.00000    -0.00000    -0.00000     0.00000    -0.00000
  39       1.45323     0.00000     0.00000    -0.00209     0.68855
  40      -0.00000     0.23799    -3.93883    -0.00000     0.00000
  41      -0.00544    -0.00001     0.00000    -3.94601     0.00004
  42       0.00000    -3.93883    -0.23799     0.00001    -0.00000
  43      -0.00000     0.23799    -3.93883    -0.00000     0.00000
  44      -0.00000     0.00000     0.00000    -0.00000    -0.00000
  45      -0.00000     0.23799    -3.93883    -0.00000     0.00000
  46      -0.00544    -0.00001     0.00000    -3.94601     0.00004
  47       0.00000    -3.93883    -0.23799     0.00001    -0.00000
  48      -0.00544    -0.00001     0.00000    -3.94601     0.00004
  49       0.00000    -3.93883    -0.23799     0.00001    -0.00000
  50       0.00000    -0.20984     3.47294     0.00000    -0.00000
  51       0.00458     0.00001    -0.00000     3.47927    -0.00009
  52      -0.00000     3.47294     0.20984    -0.00001     0.00000
  53       0.00000    -0.20984     3.47294     0.00000    -0.00000
  54       0.00000    -0.00000    -0.00000     0.00000     0.00000
  55       0.00000    -0.20984     3.47294     0.00000    -0.00000
  56       0.00458     0.00001    -0.00000     3.47927    -0.00009
  57      -0.00000     3.47294     0.20984    -0.00001     0.00000
  58       0.00458     0.00001    -0.00000     3.47927    -0.00009
  59      -0.00000     3.47294     0.20984    -0.00001     0.00000
  int_init: cando_txs set to always be  F
                                NWChem TDDFT Module
                                -------------------


            General Information
            -------------------
           No. of orbitals :     118
            Alpha orbitals :      59
             Beta orbitals :      59
        Alpha frozen cores :       0
         Beta frozen cores :       0
     Alpha frozen virtuals :       0
      Beta frozen virtuals :       0
         Spin multiplicity :       2
    Number of AO functions :      59
        Use of symmetry is : off
      Symmetry adaption is : off
         Schwarz screening :  0.10D-07

              XC Information
              --------------
              Hartree-Fock (Exact) Exchange   1.00          
              LC-wPBE(h)Exchange Functional   1.00          
     Perdew 1991 LDA Correlation Functional   1.00 local    
    PerdewBurkeErnz. Correlation Functional   1.00 non-local
           Alpha           :  0.00
           Beta            :  1.00
           Gamma           :  0.40

             TDDFT Information
             -----------------
          Calculation type : TDDFT             
         Wavefunction type : Unrestricted
          No. of electrons :      11
           Alpha electrons :       6
            Beta electrons :       5
              No. of roots :       5
          Max subspacesize :    5000
            Max iterations :     100
               Target root :       1
           Target symmetry : none
      Symmetry restriction : off
                 Algorithm : Optimal
        Davidson threshold :  0.10D-03

            Memory Information
            ------------------
          Available GA space size is       52428793038 doubles
          Available MA space size is        4194415340 doubles
          Length of a trial vector is          318     270
          Algorithm : Incore multiple tensor contraction
          Estimated peak GA usage is          12350688 doubles
          Estimated peak MA usage is             18000 doubles

    5 smallest eigenvalue differences (eV) 
--------------------------------------------------------
  No. Spin  Occ  Vir  Irrep   E(Occ)    E(Vir)   E(Diff)
--------------------------------------------------------
    1    1    6    7 a        -0.193     0.010     5.522
    2    1    6    8 a        -0.193     0.010     5.522
    3    1    6    9 a        -0.193     0.010     5.522
    4    1    6   10 a        -0.193     0.013     5.598
    5    1    6   11 a        -0.193     0.029     6.054
--------------------------------------------------------

  Entering Davidson iterations
  Unrestricted

  Iter   NTrls   NConv    DeltaV     DeltaE      Time   
  ----  ------  ------  ---------  ---------  --------- 
    1      5       0     0.41E-01   0.10+100        3.5
    2     15       0     0.23E-01   0.36E-01        5.6
    3     25       0     0.88E-02   0.41E-02        6.6
    4     35       2     0.80E-03   0.42E-04        7.2
    5     41       5     0.59E-04   0.16E-06        5.3
  ----  ------  ------  ---------  ---------  --------- 
  Convergence criterion met

  Ground state a        -162.197619939049 a.u.
  <S2> =   0.7500

  ----------------------------------------------------------------------------
  Root   1         a              0.073300822 a.u.                1.9946 eV 
  <S2> =   0.7500
  ----------------------------------------------------------------------------
     Transition Moments    X -0.00427   Y  2.58676   Z -0.00428
     Transition Moments   XX  0.00000  XY -0.00000  XZ  0.00000
     Transition Moments   YY  0.00001  YZ -0.00000  ZZ  0.00000
     Dipole Oscillator Strength                    0.3269872918
     Electric Quadrupole                           0.0000000000
     Magnetic Dipole                               0.0000000000
     Total Oscillator Strength                     0.3269872918

     Occ.    6 alpha a   ---  Virt.    7 alpha a   -0.65305 X
     Occ.    6 alpha a   ---  Virt.   11 alpha a   -0.68412 X
     Occ.    6 alpha a   ---  Virt.   20 alpha a   -0.31489 X
     Occ.    6 alpha a   ---  Virt.   29 alpha a    0.08364 X
  ----------------------------------------------------------------------------
  Root   2         a              0.073300822 a.u.                1.9946 eV 
  <S2> =   0.7500
  ----------------------------------------------------------------------------
     Transition Moments    X  2.58669   Y  0.00431   Z  0.01985
     Transition Moments   XX  0.00000  XY  0.00001  XZ -0.00000
     Transition Moments   YY  0.00000  YZ  0.00000  ZZ  0.00000
     Dipole Oscillator Strength                    0.3269879658
     Electric Quadrupole                           0.0000000000
     Magnetic Dipole                               0.0000000000
     Total Oscillator Strength                     0.3269879658

     Occ.    6 alpha a   ---  Virt.    8 alpha a   -0.45787 X
     Occ.    6 alpha a   ---  Virt.    9 alpha a   -0.46565 X
     Occ.    6 alpha a   ---  Virt.   12 alpha a   -0.47810 X
     Occ.    6 alpha a   ---  Virt.   13 alpha a   -0.48933 X
     Occ.    6 alpha a   ---  Virt.   21 alpha a   -0.21701 X
     Occ.    6 alpha a   ---  Virt.   22 alpha a   -0.22818 X
     Occ.    6 alpha a   ---  Virt.   30 alpha a   -0.05037 X
     Occ.    6 alpha a   ---  Virt.   31 alpha a    0.06677 X
  ----------------------------------------------------------------------------
  Root   3         a              0.073300822 a.u.                1.9946 eV 
  <S2> =   0.7500
  ----------------------------------------------------------------------------
     Transition Moments    X -0.01986   Y  0.00425   Z  2.58669
     Transition Moments   XX  0.00000  XY -0.00000  XZ  0.00000
     Transition Moments   YY  0.00000  YZ  0.00001  ZZ  0.00000
     Dipole Oscillator Strength                    0.3269879658
     Electric Quadrupole                           0.0000000000
     Magnetic Dipole                               0.0000000000
     Total Oscillator Strength                     0.3269879658

     Occ.    6 alpha a   ---  Virt.    8 alpha a    0.46565 X
     Occ.    6 alpha a   ---  Virt.    9 alpha a   -0.45787 X
     Occ.    6 alpha a   ---  Virt.   12 alpha a    0.48933 X
     Occ.    6 alpha a   ---  Virt.   13 alpha a   -0.47809 X
     Occ.    6 alpha a   ---  Virt.   21 alpha a    0.22818 X
     Occ.    6 alpha a   ---  Virt.   22 alpha a   -0.21701 X
     Occ.    6 alpha a   ---  Virt.   30 alpha a    0.06677 X
     Occ.    6 alpha a   ---  Virt.   31 alpha a    0.05037 X
  ----------------------------------------------------------------------------
  Root   4         a              0.120422372 a.u.                3.2769 eV 
  <S2> =   0.7500
  ----------------------------------------------------------------------------
     Transition Moments    X -0.00000   Y -0.00000   Z  0.00000
     Transition Moments   XX  4.87285  XY -0.00000  XZ -0.00000
     Transition Moments   YY  4.87285  YZ -0.00000  ZZ  4.87285
     Dipole Oscillator Strength                    0.0000000000
     Electric Quadrupole                           0.0000000000
     Magnetic Dipole                               0.0000000000
     Total Oscillator Strength                     0.0000000000

     Occ.    6 alpha a   ---  Virt.   10 alpha a   -0.83408 X
     Occ.    6 alpha a   ---  Virt.   14 alpha a    0.52948 X
     Occ.    6 alpha a   ---  Virt.   23 alpha a   -0.15195 X
  ----------------------------------------------------------------------------
  Root   5         a              0.140931173 a.u.                3.8349 eV 
  <S2> =   0.7500
  ----------------------------------------------------------------------------
     Transition Moments    X -0.00036   Y  0.14854   Z -0.00036
     Transition Moments   XX  0.00010  XY -0.00000  XZ -0.00000
     Transition Moments   YY  0.00021  YZ -0.00000  ZZ  0.00010
     Dipole Oscillator Strength                    0.0020729280
     Electric Quadrupole                           0.0000000000
     Magnetic Dipole                               0.0000000000
     Total Oscillator Strength                     0.0020729280

     Occ.    6 alpha a   ---  Virt.    7 alpha a    0.73784 X
     Occ.    6 alpha a   ---  Virt.   11 alpha a   -0.47709 X
     Occ.    6 alpha a   ---  Virt.   20 alpha a   -0.46197 X
     Occ.    6 alpha a   ---  Virt.   29 alpha a    0.11908 X

              Target root =      1
          Target symmetry = none
      Ground state energy =   -162.197619939049
        Excitation energy =      0.073300821859
     Excited state energy =   -162.124319117190

  stored tddft:energy   -162.12431911718980     

 Task  times  cpu:       27.8s     wall:       32.7s


                                NWChem Input Module
                                -------------------


 Summary of allocated global arrays
-----------------------------------
  No active global arrays


MA_summarize_allocated_blocks: starting scan ...
heap block 'gridpts', handle 36, address 0x132a1900:
	type of elements:		double precision
	number of elements:		1048462957
	address of client space:	0x132a1980
	index for client space:		12033671
	total number of bytes:		8387703792
MA_summarize_allocated_blocks: scan completed: 1 heap block, 0 stack blocks
MA usage statistics:

	allocation statistics:
					      heap	     stack
					      ----	     -----
	current number of blocks	         1	         0
	maximum number of blocks	        18	        54
	current total bytes		8387703792	         0
	maximum total bytes		8388695824	  30773448
	maximum total K-bytes		   8388696	     30774
	maximum total M-bytes		      8389	        31


                                     CITATION
                                     --------
                Please cite the following reference when publishing
                           results obtained with NWChem:

          E. Apra, E. J. Bylaska, W. A. de Jong, N. Govind, K. Kowalski,
       T. P. Straatsma, M. Valiev, H. J. J. van Dam, Y. Alexeev, J. Anchell,
       V. Anisimov, F. W. Aquino, R. Atta-Fynn, J. Autschbach, N. P. Bauman,
     J. C. Becca, D. E. Bernholdt, K. Bhaskaran-Nair, S. Bogatko, P. Borowski,
         J. Boschen, J. Brabec, A. Bruner, E. Cauet, Y. Chen, G. N. Chuev,
      C. J. Cramer, J. Daily, M. J. O. Deegan, T. H. Dunning Jr., M. Dupuis,
   K. G. Dyall, G. I. Fann, S. A. Fischer, A. Fonari, H. Fruchtl, L. Gagliardi,
      J. Garza, N. Gawande, S. Ghosh, K. Glaesemann, A. W. Gotz, J. Hammond,
       V. Helms, E. D. Hermes, K. Hirao, S. Hirata, M. Jacquelin, L. Jensen,
   B. G. Johnson, H. Jonsson, R. A. Kendall, M. Klemm, R. Kobayashi, V. Konkov,
      S. Krishnamoorthy, M. Krishnan, Z. Lin, R. D. Lins, R. J. Littlefield,
      A. J. Logsdail, K. Lopata, W. Ma, A. V. Marenich, J. Martin del Campo,
   D. Mejia-Rodriguez, J. E. Moore, J. M. Mullin, T. Nakajima, D. R. Nascimento,
    J. A. Nichols, P. J. Nichols, J. Nieplocha, A. Otero-de-la-Roza, B. Palmer,
    A. Panyala, T. Pirojsirikul, B. Peng, R. Peverati, J. Pittner, L. Pollack,
   R. M. Richard, P. Sadayappan, G. C. Schatz, W. A. Shelton, D. W. Silverstein,
   D. M. A. Smith, T. A. Soares, D. Song, M. Swart, H. L. Taylor, G. S. Thomas,
            V. Tipparaju, D. G. Truhlar, K. Tsemekhman, T. Van Voorhis,
      A. Vazquez-Mayagoitia, P. Verma, O. Villa, A. Vishnu, K. D. Vogiatzis,
        D. Wang, J. H. Weare, M. J. Williamson, T. L. Windus, K. Wolinski,
        A. T. Wong, Q. Wu, C. Yang, Q. Yu, M. Zacharias, Z. Zhang, Y. Zhao,
                                and R. J. Harrison
                        "NWChem: Past, present, and future
                         J. Chem. Phys. 152, 184102 (2020)
                               doi:10.1063/5.0004997

                                      AUTHORS
                                      -------
  E. Apra, E. J. Bylaska, N. Govind, K. Kowalski, M. Valiev, D. Mejia-Rodriguez,
       A. Kunitsa, N. P. Bauman, A. Panyala, W. A. de Jong, T. P. Straatsma,
   H. J. J. van Dam, D. Wang, T. L. Windus, J. Hammond, J. Autschbach, A. Woods,
    K. Bhaskaran-Nair, J. Brabec, K. Lopata, S. A. Fischer, S. Krishnamoorthy,
     M. Jacquelin, W. Ma, M. Klemm, O. Villa, Y. Chen, V. Anisimov, F. Aquino,
     S. Hirata, M. T. Hackler, E. Hermes, L. Jensen, J. E. Moore, J. C. Becca,
      V. Konjkov, T. Risthaus, M. Malagoli, A. Marenich, A. Otero-de-la-Roza,
        J. Mullin, P. Nichols, R. Peverati, J. Pittner, Y. Zhao, P.-D. Fan,
        A. Fonari, M. J. Williamson, R. J. Harrison, J. R. Rehr, M. Dupuis,
     D. Silverstein, D. M. A. Smith, J. Nieplocha, V. Tipparaju, M. Krishnan,
     B. E. Van Kuiken, A. Vazquez-Mayagoitia, M. Swart, Q. Wu, T. Van Voorhis,
     A. A. Auer, M. Nooijen, L. D. Crosby, E. Brown, G. Cisneros, G. I. Fann,
   H. Fruchtl, J. Garza, K. Hirao, R. A. Kendall, J. A. Nichols, K. Tsemekhman,
    K. Wolinski, J. Anchell, D. E. Bernholdt, P. Borowski, T. Clark, D. Clerc,
   H. Dachsel, M. J. O. Deegan, K. Dyall, D. Elwood, E. Glendening, M. Gutowski,
   A. C. Hess, J. Jaffe, B. G. Johnson, J. Ju, R. Kobayashi, R. Kutteh, Z. Lin,
   R. Littlefield, X. Long, B. Meng, T. Nakajima, S. Niu, L. Pollack, M. Rosing,
   K. Glaesemann, G. Sandrone, M. Stave, H. Taylor, G. Thomas, J. H. van Lenthe,
                               A. T. Wong, Z. Zhang.

 Total times  cpu:       27.9s     wall:       33.1s
