 argument  1 = /home/aditisingh4812/nw_chem/nwchem-run/nwchem-run/tddft/open/open_atom/geom-MOL-0.4/s.nw
                                         
                                         


             Northwest Computational Chemistry Package (NWChem) 7.2.3
             --------------------------------------------------------


                    Environmental Molecular Sciences Laboratory
                       Pacific Northwest National Laboratory
                                Richland, WA 99352

                              Copyright (c) 1994-2022
                       Pacific Northwest National Laboratory
                            Battelle Memorial Institute

             NWChem is an open-source computational chemistry package
                        distributed under the terms of the
                      Educational Community License (ECL) 2.0
             A copy of the license is included with this distribution
                              in the LICENSE.TXT file

                                  ACKNOWLEDGMENT
                                  --------------

            This software and its documentation were developed at the
            EMSL at Pacific Northwest National Laboratory, a multiprogram
            national laboratory, operated for the U.S. Department of Energy
            by Battelle under Contract Number DE-AC05-76RL01830. Support
            for this work was provided by the Department of Energy Office
            of Biological and Environmental Research, Office of Basic
            Energy Sciences, and the Office of Advanced Scientific Computing.


           Job information
           ---------------

    hostname        = p17
    program         = /home/aditisingh4812/nw_chem/nwchem-7.2.3-release.revision-d690e065-srconly.2024-08-27/nwchem-7.2.3/bin/LINUX64/nwchem
    date            = Thu Apr 24 11:21:45 2025

    compiled        = Mon_Apr_07_18:51:54_2025
    source          = /home/aditisingh4812/nw_chem/nwchem-7.2.3-release.revision-d690e065-srconly.2024-08-27/nwchem-7.2.3
    nwchem branch   = 7.2.3
    nwchem revision = d690e065
    ga revision     = 5.8.0
    use scalapack   = F
    input           = /home/aditisingh4812/nw_chem/nwchem-run/nwchem-run/tddft/open/open_atom/geom-MOL-0.4/s.nw
    prefix          = s.
    data base       = ./s.db
    status          = startup
    nproc           =        8
    time left       =     -1s



           Memory information
           ------------------

    heap     = 2621440000 doubles =  20000.0 Mbytes
    stack    = 2621439997 doubles =  20000.0 Mbytes
    global   = 6553600000 doubles =  50000.0 Mbytes (distinct from heap & stack)
    total    = ********** doubles =  90000.0 Mbytes
    verify   = yes
    hardfail = no 


           Directory information
           ---------------------

  0 permanent = .
  0 scratch   = .




                                NWChem Input Module
                                -------------------



 Scaling coordinates for geometry "geometry" by  1.889725989
 (inverse scale =  0.529177249)



                             Geometry "geometry" -> ""
                             -------------------------

 Output coordinates in angstroms (scale by  1.889725989 to convert to a.u.)

  No.       Tag          Charge          X              Y              Z
 ---- ---------------- ---------- -------------- -------------- --------------
    1 S                   16.0000     0.00000000     0.00000000     0.00000000

      Atomic Mass 
      ----------- 

      S                 31.972070


 Effective nuclear repulsion energy (a.u.)       0.0000000000

            Nuclear Dipole moment (a.u.) 
            ----------------------------
        X                 Y               Z
 ---------------- ---------------- ----------------
     0.0000000000     0.0000000000     0.0000000000


            XYZ format geometry
            -------------------
     1
 geometry
 S                     0.00000000     0.00000000     0.00000000



 Summary of "ao basis" -> "" (cartesian)
 ------------------------------------------------------------------------------
       Tag                 Description            Shells   Functions and Types
 ---------------- ------------------------------  ------  ---------------------
 *                        aug-cc-pVTZ                 on all atoms 


  pbe96 is a nonlocal functional; adding pw91lda local functional. 

                                 NWChem DFT Module
                                 -----------------


                      Basis "ao basis" -> "ao basis" (cartesian)
                      -----
  S (Sulphur)
  -----------
            Exponent  Coefficients 
       -------------- ---------------------------------------------------------
  1 S  3.74100000E+05  0.000054
  1 S  5.60500000E+04  0.000421
  1 S  1.27600000E+04  0.002207
  1 S  3.61500000E+03  0.009193
  1 S  1.18300000E+03  0.032112
  1 S  4.28800000E+02  0.094668
  1 S  1.67800000E+02  0.223630
  1 S  6.94700000E+01  0.374393
  1 S  2.98400000E+01  0.329108
  1 S  1.27200000E+01  0.084704
  1 S  5.24400000E+00  0.000441
  1 S  2.21900000E+00  0.001648
  1 S  3.49000000E-01  0.000301

  2 S  3.74100000E+05 -0.000015
  2 S  5.60500000E+04 -0.000116
  2 S  1.27600000E+04 -0.000612
  2 S  3.61500000E+03 -0.002554
  2 S  1.18300000E+03 -0.009087
  2 S  4.28800000E+02 -0.027705
  2 S  1.67800000E+02 -0.072002
  2 S  6.94700000E+01 -0.146439
  2 S  2.98400000E+01 -0.195150
  2 S  1.27200000E+01  0.008192
  2 S  5.24400000E+00  0.516601
  2 S  2.21900000E+00  0.542178
  2 S  3.49000000E-01 -0.009181

  3 S  3.74100000E+05  0.000004
  3 S  5.60500000E+04  0.000034
  3 S  1.27600000E+04  0.000178
  3 S  3.61500000E+03  0.000741
  3 S  1.18300000E+03  0.002646
  3 S  4.28800000E+02  0.008075
  3 S  1.67800000E+02  0.021228
  3 S  6.94700000E+01  0.043832
  3 S  2.98400000E+01  0.061272
  3 S  1.27200000E+01 -0.003615
  3 S  5.24400000E+00 -0.204510
  3 S  2.21900000E+00 -0.381871
  3 S  3.49000000E-01  0.714147

  4 S  7.76700000E-01  1.000000

  5 S  1.32200000E-01  1.000000

  6 S  4.97000000E-02  1.000000

  7 P  5.74400000E+02  0.002423
  7 P  1.35800000E+02  0.019280
  7 P  4.31900000E+01  0.088540
  7 P  1.58700000E+01  0.254654
  7 P  6.20800000E+00  0.433984
  7 P  2.48300000E+00  0.354953
  7 P  3.22900000E-01 -0.005030

  8 P  5.74400000E+02 -0.000620
  8 P  1.35800000E+02 -0.004939
  8 P  4.31900000E+01 -0.023265
  8 P  1.58700000E+01 -0.068520
  8 P  6.20800000E+00 -0.123896
  8 P  2.48300000E+00 -0.096950
  8 P  3.22900000E-01  0.569394

  9 P  8.68800000E-01  1.000000

 10 P  1.09800000E-01  1.000000

 11 P  3.51000000E-02  1.000000

 12 D  2.69000000E-01  1.000000

 13 D  8.19000000E-01  1.000000

 14 D  1.01000000E-01  1.000000

 15 F  5.57000000E-01  1.000000

 16 F  2.18000000E-01  1.000000



 Summary of "ao basis" -> "ao basis" (cartesian)
 ------------------------------------------------------------------------------
       Tag                 Description            Shells   Functions and Types
 ---------------- ------------------------------  ------  ---------------------
 S                        aug-cc-pVTZ               16       59   6s5p3d2f




 Summary of "ao basis" -> "ao basis" (cartesian)
 ------------------------------------------------------------------------------
       Tag                 Description            Shells   Functions and Types
 ---------------- ------------------------------  ------  ---------------------
 S                        aug-cc-pVTZ               16       59   6s5p3d2f




                         Geometry "geometry" -> "geometry"
                         ---------------------------------

 Output coordinates in angstroms (scale by  1.889725989 to convert to a.u.)

  No.       Tag          Charge          X              Y              Z
 ---- ---------------- ---------- -------------- -------------- --------------
    1 S                   16.0000     0.00000000     0.00000000     0.00000000

      Atomic Mass 
      ----------- 

      S                 31.972070


 Effective nuclear repulsion energy (a.u.)       0.0000000000

            Nuclear Dipole moment (a.u.) 
            ----------------------------
        X                 Y               Z
 ---------------- ---------------- ----------------
     0.0000000000     0.0000000000     0.0000000000


                      Basis "ao basis" -> "ao basis" (cartesian)
                      -----
  S (Sulphur)
  -----------
            Exponent  Coefficients 
       -------------- ---------------------------------------------------------
  1 S  3.74100000E+05  0.584419
  1 S  5.60500000E+04  1.092538
  1 S  1.27600000E+04  1.888246
  1 S  3.61500000E+03  3.054153
  1 S  1.18300000E+03  4.616174
  1 S  4.28800000E+02  6.357229
  1 S  1.67800000E+02  7.430127
  1 S  6.94700000E+01  6.420190
  1 S  2.98400000E+01  2.994399
  1 S  1.27200000E+01  0.406575
  1 S  5.24400000E+00  0.001089
  1 S  2.21900000E+00  0.002136
  1 S  3.49000000E-01  0.000097

  2 S  3.74100000E+05 -0.170110
  2 S  5.60500000E+04 -0.317688
  2 S  1.27600000E+04 -0.551080
  2 S  3.61500000E+03 -0.893557
  2 S  1.18300000E+03 -1.375733
  2 S  4.28800000E+02 -1.959352
  2 S  1.67800000E+02 -2.519473
  2 S  6.94700000E+01 -2.644697
  2 S  2.98400000E+01 -1.869988
  2 S  1.27200000E+01  0.041412
  2 S  5.24400000E+00  1.343610
  2 S  2.21900000E+00  0.739828
  2 S  3.49000000E-01 -0.003129

  3 S  3.74100000E+05  0.073566
  3 S  5.60500000E+04  0.137285
  3 S  1.27600000E+04  0.238448
  3 S  3.61500000E+03  0.386233
  3 S  1.18300000E+03  0.596617
  3 S  4.28800000E+02  0.850568
  3 S  1.67800000E+02  1.106311
  3 S  6.94700000E+01  1.179029
  3 S  2.98400000E+01  0.874461
  3 S  1.27200000E+01 -0.027219
  3 S  5.24400000E+00 -0.792216
  3 S  2.21900000E+00 -0.776099
  3 S  3.49000000E-01  0.362484

  4 S  7.76700000E-01  0.589658

  5 S  1.32200000E-01  0.156255

  6 S  4.97000000E-02  0.075020

  7 P  5.74400000E+02 10.008368
  7 P  1.35800000E+02 13.130434
  7 P  4.31900000E+01 14.402085
  7 P  1.58700000E+01 11.850264
  7 P  6.20800000E+00  6.247693
  7 P  2.48300000E+00  1.625355
  7 P  3.22900000E-01 -0.001799

  8 P  5.74400000E+02 -4.264907
  8 P  1.35800000E+02 -5.599848
  8 P  4.31900000E+01 -6.300207
  8 P  1.58700000E+01 -5.308401
  8 P  6.20800000E+00 -2.969445
  8 P  2.48300000E+00 -0.739089
  8 P  3.22900000E-01  0.338982

  9 P  8.68800000E-01  1.195611

 10 P  1.09800000E-01  0.090093

 11 P  3.51000000E-02  0.021656

 12 D  2.69000000E-01  0.165377

 13 D  8.19000000E-01  1.160530

 14 D  1.01000000E-01  0.029783

 15 F  5.57000000E-01  0.394574

 16 F  2.18000000E-01  0.047806



    Basis function labels
    ---------------------
       No.  Atm El Type
       ---  --- -- ----
        1    1 S  s          
        2    1 S  s          
        3    1 S  s          
        4    1 S  s          
        5    1 S  s          
        6    1 S  s          
        7    1 S  px         
        8    1 S  py         
        9    1 S  pz         
       10    1 S  px         
       11    1 S  py         
       12    1 S  pz         
       13    1 S  px         
       14    1 S  py         
       15    1 S  pz         
       16    1 S  px         
       17    1 S  py         
       18    1 S  pz         
       19    1 S  px         
       20    1 S  py         
       21    1 S  pz         
       22    1 S  dxx        
       23    1 S  dxy        
       24    1 S  dxz        
       25    1 S  dyy        
       26    1 S  dyz        
       27    1 S  dzz        
       28    1 S  dxx        
       29    1 S  dxy        
       30    1 S  dxz        
       31    1 S  dyy        
       32    1 S  dyz        
       33    1 S  dzz        
       34    1 S  dxx        
       35    1 S  dxy        
       36    1 S  dxz        
       37    1 S  dyy        
       38    1 S  dyz        
       39    1 S  dzz        
       40    1 S  fxxx       
       41    1 S  fxxy       
       42    1 S  fxxz       
       43    1 S  fxyy       
       44    1 S  fxyz       
       45    1 S  fxzz       
       46    1 S  fyyy       
       47    1 S  fyyz       
       48    1 S  fyzz       
       49    1 S  fzzz       
       50    1 S  fxxx       
       51    1 S  fxxy       
       52    1 S  fxxz       
       53    1 S  fxyy       
       54    1 S  fxyz       
       55    1 S  fxzz       
       56    1 S  fyyy       
       57    1 S  fyyz       
       58    1 S  fyzz       
       59    1 S  fzzz       
  int_init: cando_txs set to always be  F

 Schwarz integral screening summary 
 ---------------------------------- 

        No. of atom pairs =       1
       No. of shell pairs =     136

 Atomic screening 

   value      no.     value      no.     value      no.     value      no.   
  -------- ------    -------- ------    -------- ------    -------- ------   
  0.00D+00      0    1.00D-13      0    1.00D-12      0    1.00D-11      0
  1.00D-10      0    1.00D-09      0    1.00D-08      0    1.00D-07      0
  1.00D-06      0    1.00D-05      0    1.00D-04      0    1.00D-03      0
  1.00D-02      0    1.00D-01      0    1.00D+00      1    1.00D+01      0


 Shell screening 

   value      no.     value      no.     value      no.     value      no.   
  -------- ------    -------- ------    -------- ------    -------- ------   
  0.00D+00      0    1.00D-13      0    1.00D-12      0    1.00D-11      0
  1.00D-10      0    1.00D-09      0    1.00D-08      0    1.00D-07      0
  1.00D-06      0    1.00D-05      0    1.00D-04      1    1.00D-03      5
  1.00D-02      7    1.00D-01     47    1.00D+00     76    1.00D+01      0


  Caching 1-el integrals 
  atom                     1  - neighbor  & S                     1   10.000000000000000       exp AB    3.5100000000000027E-002   3.5100000000000027E-002
 zmins =     0.035100000    0.035100000 lprod =   2 range =        18.71 acc   0.10D-07
 sh     0.000000000
  Center:                     1  Radial Pts. & Wghts. 
    1        0.000002531           4.8613009E-17
    2        0.000020244           1.2445017E-14
    3        0.000068325           3.1895825E-13
    4        0.000161956           3.1861029E-12
    5        0.000316325           1.8991811E-11
    6        0.000546622           8.1668743E-11
    7        0.000868044           2.8034017E-10
    8        0.001295794           8.1600780E-10
    9        0.001845087           2.0941546E-09
   10        0.002531156           4.8661600E-09
   11        0.003369247           1.0434501E-08
   12        0.004374633           2.0938842E-08
   13        0.005562614           3.9742331E-08
   14        0.006948522           7.1939694E-08
   15        0.008547728           1.2501115E-07
   16        0.010375648           2.0964868E-07
   17        0.012447751           3.4078395E-07
   18        0.014779565           5.3884993E-07
   19        0.017386682           8.3131159E-07
   20        0.020284772           1.2545042E-06
   21        0.023489589           1.8558216E-06
   22        0.027016978           2.6963008E-06
   23        0.030882888           3.8536531E-06
   24        0.035103383           5.4257985E-06
   25        0.039694651           7.5349631E-06
   26        0.044673016           1.0332407E-05
   27        0.050054950           1.4003854E-05
   28        0.055857089           1.8775713E-05
   29        0.062096242           2.4922162E-05
   30        0.068789411           3.2773212E-05
   31        0.075953801           4.2723852E-05
   32        0.083606838           5.5244384E-05
   33        0.091766187           7.0892105E-05
   34        0.100449770           9.0324455E-05
   35        0.109675780           1.1431382E-04
   36        0.119462707           1.4376413E-04
   37        0.129829356           1.7972955E-04
   38        0.140794865           2.2343534E-04
   39        0.152378737           2.7630123E-04
   40        0.164600854           3.3996767E-04
   41        0.177481511           4.1632503E-04
   42        0.191041438           5.0754632E-04
   43        0.205301829           6.1612377E-04
   44        0.220284374           7.4490962E-04
   45        0.236011292           8.9716171E-04
   46        0.252505360           1.0765944E-03
   47        0.269789952           1.2874354E-03
   48        0.287889079           1.5344892E-03
   49        0.306827423           1.8232084E-03
   50        0.326630387           2.1597724E-03
   51        0.347324136           2.5511765E-03
   52        0.368935644           3.0053310E-03
   53        0.391492752           3.5311720E-03
   54        0.415024216           4.1387859E-03
   55        0.439559768           4.8395485E-03
   56        0.465130182           5.6462812E-03
   57        0.491767335           6.5734265E-03
   58        0.519504284           7.6372445E-03
   59        0.548375339           8.8560343E-03
   60        0.578416149           1.0250383E-02
   61        0.609663786           1.1843448E-02
   62        0.642156846           1.3661269E-02
   63        0.675935547           1.5733130E-02
   64        0.711041842           1.8091963E-02
   65        0.747519539           2.0774799E-02
   66        0.785414429           2.3823296E-02
   67        0.824774425           2.7284318E-02
   68        0.865649718           3.1210608E-02
   69        0.908092937           3.5661550E-02
   70        0.952159330           4.0704034E-02
   71        0.997906962           4.6413449E-02
   72        1.045396923           5.2874816E-02
   73        1.094693564           6.0184091E-02
   74        1.145864752           6.8449653E-02
   75        1.198982147           7.7794028E-02
   76        1.254121511           8.8355870E-02
   77        1.311363043           1.0029225E-01
   78        1.370791754           1.1378130E-01
   79        1.432497877           1.2902532E-01
   80        1.496577321           1.4625435E-01
   81        1.563132179           1.6573034E-01
   82        1.632271287           1.8775208E-01
   83        1.704110851           2.1266094E-01
   84        1.778775148           2.4084763E-01
   85        1.856397308           2.7276020E-01
   86        1.937120194           3.0891355E-01
   87        2.021097397           3.4990064E-01
   88        2.108494352           3.9640599E-01
   89        2.199489610           4.4922174E-01
   90        2.294276284           5.0926708E-01
   91        2.393063689           5.7761163E-01
   92        2.496079232           6.5550384E-01
   93        2.603570579           7.4440570E-01
   94        2.715808151           8.4603513E-01
   95        2.833088025           9.6241836E-01
   96        2.955735301           1.0959548E+00
   97        3.084108048           1.2494977E+00
   98        3.218601939           1.4264562E+00
   99        3.359655727           1.6309228E+00
  100        3.507757757           1.8678375E+00
  101        3.663453759           2.1431967E+00
  102        3.827356226           2.4643250E+00
  103        4.000155789           2.8402299E+00
  104        4.182635131           3.2820689E+00
  105        4.375686128           3.8037749E+00
  106        4.580331182           4.4228979E+00
  107        4.797750026           5.1617585E+00
  108        5.029313792           6.0490462E+00
  109        5.276628810           7.1220730E+00
  110        5.541593718           8.4300036E+00
  111        5.826475017           1.0038577E+01
  112        6.134008734           1.2037163E+01
  113        6.467539832           1.4549557E+01
  114        6.831217524           1.7750980E+01
  115        7.230275785           2.1895711E+01
  116        7.671447932           2.7363693E+01
  117        8.163600387           3.4742695E+01
  118        8.718741287           4.4980913E+01
  119        9.353706142           5.9689082E+01
  120       10.093151700           8.1788156E+01
  121       10.975304184           1.1704761E+02
  122       12.064203597           1.7827805E+02
  123       13.479902998           2.9924348E+02
  124       15.491926024           5.9774620E+02
  125       18.960301172           1.8052720E+03
     irreducible set of Lebedev Angular points ;
  0.009523809523810  1.000000000000000  0.000000000000000  0.000000000000000
  0.032142857142857  0.577350269189626  0.577350269189626  0.577350269189626
  0.028571428571429  0.459700843380983  0.000000000000000  0.888073833977115
   total no. of   reducible points:  38; test:  1.00000000
  0.012698412698413  1.000000000000000  0.000000000000000  0.000000000000000
  0.022574955908289  0.707106781186547  0.707106781186547  0.000000000000000
  0.021093750000000  0.577350269189626  0.577350269189626  0.577350269189626
  0.020173335537919  0.301511344577764  0.301511344577764  0.904534033733291
   total no. of   reducible points:  50; test:  1.00000000
  0.000513067179734  1.000000000000000  0.000000000000000  0.000000000000000
  0.016604069565742  0.707106781186547  0.707106781186547  0.000000000000000
 -0.029586038961039  0.577350269189626  0.577350269189626  0.577350269189626
  0.026576207082159  0.480384461415261  0.480384461415261  0.733799385705343
  0.016522170993716  0.320772648980776  0.000000000000000  0.947156221362588
   total no. of   reducible points:  74; test:  1.00000000
  0.011544011544012  1.000000000000000  0.000000000000000  0.000000000000000
  0.011943909085856  0.577350269189626  0.577350269189626  0.577350269189626
  0.011110555710603  0.369602846454150  0.369602846454150  0.852518311701268
  0.011876501294537  0.694354006602666  0.694354006602666  0.189063552885395
  0.011812303746904  0.374243039090341  0.000000000000000  0.927330657151172
   total no. of   reducible points:  86; test:  1.00000000
  0.003828270494937  1.000000000000000  0.000000000000000  0.000000000000000
  0.009793737512488  0.577350269189626  0.577350269189626  0.577350269189626
  0.008211737283191  0.185115635344736  0.185115635344736  0.965124035086594
  0.009942814891178  0.690421048382292  0.690421048382292  0.215957291845848
  0.009595471336071  0.395689473055942  0.395689473055942  0.828769981252592
  0.009694996361663  0.478369028812150  0.000000000000000  0.878158910604066
   total no. of   reducible points: 110; test:  1.00000000
  0.000599631368862  1.000000000000000  0.000000000000000  0.000000000000000
  0.007372999718621  0.707106781186547  0.707106781186547  0.000000000000000
  0.007210515360144  0.577350269189626  0.577350269189626  0.577350269189626
  0.007116355493118  0.676441040011426  0.676441040011426  0.291298882209527
  0.006753829486314  0.417496122796545  0.417496122796545  0.807089818359583
  0.007574394159054  0.157467667203908  0.157467667203908  0.974888643677173
  0.006991087353303  0.140355381171318  0.449332832326956  0.882270011260323
   total no. of   reducible points: 146; test:  1.00000000
  0.005544842902037  1.000000000000000  0.000000000000000  0.000000000000000
  0.006071332770671  0.707106781186547  0.707106781186547  0.000000000000000
  0.006383674773515  0.577350269189626  0.577350269189626  0.577350269189626
  0.005183387587748  0.255125262111413  0.255125262111413  0.932642590312691
  0.006317929009814  0.674360146036277  0.674360146036277  0.300793595137701
  0.006201670006589  0.431891069671941  0.431891069671941  0.791795559393492
  0.005477143385137  0.261393136033599  0.000000000000000  0.965232421976448
  0.005968383987681  0.499045316179604  0.144663074432512  0.854415804684659
   total no. of   reducible points: 170; test:  1.00000000
  0.001782340447245  1.000000000000000  0.000000000000000  0.000000000000000
  0.005716905949977  0.707106781186547  0.707106781186547  0.000000000000000
  0.005573383178849  0.577350269189626  0.577350269189626  0.577350269189626
  0.005608704082588  0.671297344269523  0.671297344269523  0.314196994182586
  0.005158237711805  0.289246562757544  0.289246562757544  0.912509096867474
  0.005518771467274  0.444693317871744  0.444693317871744  0.777493219314767
  0.004106777028169  0.129933544765007  0.129933544765007  0.982972302707253
  0.005051846064615  0.345770219761128  0.000000000000000  0.938319218137592
  0.005530248916233  0.159041710538353  0.836036015482459  0.525118572443642
   total no. of   reducible points: 194; test:  1.00000000
 -0.055226399197273  1.000000000000000  0.000000000000000  0.000000000000000
  0.004450274607445  0.577350269189626  0.577350269189626  0.577350269189626
  0.004496841067921  0.449204468739761  0.449204468739761  0.772289253148364
  0.005049153450479  0.252041949021020  0.252041949021020  0.934317778845812
  0.003976408018052  0.698190665844724  0.698190665844724  0.158302205463478
  0.004401400650381  0.658740524346096  0.658740524346096  0.363485684956727
  0.017245443505444  0.040385440500977  0.040385440500977  0.998367683967727
  0.004231083095357  0.582384230971558  0.000000000000000  0.812913653173365
  0.005198069864064  0.354587739051869  0.000000000000000  0.935022745880593
  0.004695720972569  0.227218180899819  0.486466153588665  0.843636521068894
   total no. of   reducible points: 230; test:  1.00000000
 -0.001313769127327  1.000000000000000  0.000000000000000  0.000000000000000
 -0.002522728704859  0.707106781186547  0.707106781186547  0.000000000000000
  0.004186853881701  0.577350269189626  0.577350269189626  0.577350269189626
  0.005315167977811  0.703937339158548  0.703937339158548  0.094575076403713
  0.004047142377086  0.101252624857241  0.101252624857241  0.989694807462905
  0.004112482394407  0.464744872642054  0.464744872642054  0.753673939250816
  0.003595584899759  0.327742065497163  0.327742065497163  0.886098344997499
  0.004256131351428  0.662033866369997  0.662033866369997  0.351315128564633
  0.004229582700647  0.850650808352040  0.000000000000000  0.525731112119134
  0.004080914225781  0.323348454269290  0.115311201100970  0.939227929749916
  0.004071467593831  0.231479015871260  0.524493924092236  0.819343388819120
   total no. of   reducible points: 266; test:  1.00000000
  0.000854591172513  1.000000000000000  0.000000000000000  0.000000000000000
  0.003599119285026  0.577350269189626  0.577350269189626  0.577350269189626
  0.003449788424306  0.351564034557011  0.351564034557011  0.867643624544083
  0.003604822601420  0.656632941021961  0.656632941021961  0.371034178384821
  0.003576729661743  0.472905413258100  0.472905413258100  0.743452042987556
  0.002352101413689  0.096183085226148  0.096183085226148  0.990705621379408
  0.003108953122414  0.221964523629418  0.221964523629418  0.949454317226443
  0.003650045807677  0.701176641608955  0.701176641608955  0.129238672710514
  0.002982344963172  0.264415288706066  0.000000000000000  0.964408914879206
  0.003600820932216  0.571895589187896  0.000000000000000  0.820326419827759
  0.003571540554273  0.251003475177047  0.800072749407395  0.544867737258077
  0.003392312205006  0.123354853258333  0.412772408316853  0.902442529533000
   total no. of   reducible points: 302; test:  1.00000000
  0.003006796749454  1.000000000000000  0.000000000000000  0.000000000000000
  0.003050627745651  0.577350269189626  0.577350269189626  0.577350269189626
  0.001621104600289  0.706896546391232  0.706896546391232  0.024383301669356
  0.003005701484902  0.479468262571203  0.479468262571203  0.734996850587746
  0.002990992529654  0.192753315487802  0.192753315487802  0.962129055136014
  0.002982170644108  0.693035796132712  0.693035796132712  0.198501311223365
  0.002721564237311  0.360830211552009  0.360830211552009  0.860001812127547
  0.003033513795811  0.649848616149617  0.649848616149617  0.394199888605839
  0.003007949555219  0.193294501323034  0.000000000000000  0.981140782843257
  0.002881964603055  0.380049491989930  0.000000000000000  0.924966152698679
  0.002958357626536  0.289955882549957  0.793453785658232  0.535123047718276
  0.003036020026407  0.096841214551040  0.828080150668686  0.552182074349399
  0.002832187403926  0.183343464704166  0.907465826530513  0.378009189874487
   total no. of   reducible points: 350; test:  1.00000000
  0.000526589796822  1.000000000000000  0.000000000000000  0.000000000000000
  0.002548219972003  0.707106781186547  0.707106781186547  0.000000000000000
  0.002512317418927  0.577350269189626  0.577350269189626  0.577350269189626
  0.002530403801186  0.690934630750911  0.690934630750911  0.212646824707552
  0.002014279020919  0.177483605460916  0.177483605460916  0.967987158791473
  0.002501725168403  0.491434263778475  0.491434263778475  0.719016501040843
  0.002513267174598  0.645666470742426  0.645666470742426  0.407712664897770
  0.002302694782227  0.286128901030764  0.286128901030764  0.914472801120872
  0.001462495621595  0.075680843671780  0.075680843671780  0.994255912631278
  0.002445373437313  0.392725976336800  0.392725976336800  0.831584400419232
  0.002417442375639  0.881813287779429  0.000000000000000  0.471598691151316
  0.001910951282180  0.977642811118265  0.000000000000000  0.210272522857307
  0.002416930044325  0.205482369640304  0.868946032287241  0.450233038258263
  0.002512236854563  0.590515704892527  0.799927854385729  0.106801826075805
  0.002496644054553  0.555015236107681  0.771746262691590  0.310428403516654
  0.002236607760438  0.937180985855372  0.334436314534346  0.099217696364292
   total no. of   reducible points: 434; test:  1.00000000
  0.000309512129531  1.000000000000000  0.000000000000000  0.000000000000000
  0.001852379698597  0.577350269189626  0.577350269189626  0.577350269189626
  0.001871790639278  0.704095493822747  0.704095493822747  0.092190407076898
  0.001858812585438  0.680774406645524  0.680774406645524  0.270356088359165
  0.001852028828296  0.637254693925875  0.637254693925875  0.433373868777154
  0.001846715956151  0.504441970780036  0.504441970780036  0.700768575373573
  0.001818471778163  0.421576178401097  0.421576178401097  0.802836877335274
  0.001749564657281  0.331792073647212  0.331792073647212  0.883078727934133
  0.001617210647254  0.238473670142189  0.238473670142189  0.941414158220403
  0.001384737234852  0.145903644915776  0.145903644915776  0.978480583762694
  0.000976433116505  0.060950341155072  0.060950341155072  0.996278129754016
  0.001857161196774  0.611684344200988  0.000000000000000  0.791101929626902
  0.001705153996396  0.396475534819986  0.000000000000000  0.918045287711454
  0.001300321685886  0.172478200990772  0.000000000000000  0.985013335028002
  0.001842866472905  0.561026380862206  0.351828092773352  0.749310611904116
  0.001802658934377  0.474239284255198  0.263471665593795  0.840047488359050
  0.001849830560444  0.598412649788538  0.181664084036021  0.780320742479920
  0.001713904507107  0.379103540769556  0.172079522565688  0.909213475092374
  0.001555213603397  0.277867319058624  0.082130215819325  0.957102074310073
  0.001802239128009  0.503356427107512  0.089992058420749  0.859379855890721
   total no. of   reducible points: 590; test:  1.00000000
  0.000219294208818  1.000000000000000  0.000000000000000  0.000000000000000
  0.001436433617319  0.707106781186547  0.707106781186547  0.000000000000000
  0.001421940344336  0.577350269189626  0.577350269189626  0.577350269189626
  0.000679812351105  0.050872044105024  0.050872044105024  0.997408677652823
  0.000991318423529  0.122819879017883  0.122819879017883  0.984799753572301
  0.001180207833239  0.202689081440879  0.202689081440879  0.958036675983391
  0.001296599602081  0.284774515646429  0.284774515646429  0.915317950483155
  0.001365871427428  0.365671907897803  0.365671907897803  0.855901928697887
  0.001402988604775  0.442826488671347  0.442826488671347  0.779621319527635
  0.001418645563596  0.514061962724974  0.514061962724974  0.686644447264154
  0.001421376741852  0.630640121916680  0.630640121916680  0.452311920313658
  0.001423996475491  0.671688333202261  0.671688333202261  0.312521305001653
  0.001431554042179  0.697979268533688  0.697979268533688  0.160155803498829
  0.000925440149987  0.144686567419531  0.000000000000000  0.989477537495599
  0.001250239995054  0.339026347541122  0.000000000000000  0.940776878793759
  0.001394365843329  0.533580465126351  0.000000000000000  0.845749305193653
  0.001127089094672  0.069440243933494  0.235518789424233  0.969385863498432
  0.001345753760911  0.226900410952946  0.410218247404573  0.883310360522113
  0.001424957283317  0.080255746077753  0.621430241748161  0.779348105702661
  0.001261523341238  0.146799952789657  0.324528434571739  0.934414827052402
  0.001392547106053  0.157150776982473  0.522448218969663  0.838064133458312
  0.001418761677878  0.236570299315725  0.601754663408956  0.762840624604670
  0.001338366684480  0.077148158667657  0.434657551614116  0.897285336132833
  0.001393700862676  0.306293666621073  0.490882658903762  0.815609223203975
  0.001415914757467  0.382247737952479  0.564876814909950  0.731300793659766
   total no. of   reducible points: 770; test:  1.00000000
  0.000143829419053  1.000000000000000  0.000000000000000  0.000000000000000
  0.001125772288287  0.577350269189626  0.577350269189626  0.577350269189626
  0.000494802934195  0.042929635453413  0.042929635453413  0.998155345023847
  0.000735799010913  0.105142685408640  0.105142685408640  0.988883224354686
  0.000888913277130  0.175002486762309  0.175002486762309  0.968890220434707
  0.000988834783892  0.247765337965026  0.247765337965026  0.936602730407163
  0.001053299681709  0.320656712395596  0.320656712395596  0.891267942647606
  0.001092778807015  0.391652074984998  0.391652074984998  0.832596723702352
  0.001114389394063  0.459082587418762  0.459082587418762  0.760582905315251
  0.001123724788052  0.521456388841586  0.521456388841586  0.675400969108414
  0.001125239325244  0.625317024465420  0.625317024465420  0.466858905695743
  0.001126153271816  0.663792674452317  0.663792674452317  0.344613654237438
  0.001130286931124  0.691041039849830  0.691041039849830  0.211954151850184
  0.001134986534364  0.705290700745776  0.705290700745776  0.071624401449956
  0.000682336792711  0.123668676265799  0.000000000000000  0.992323565431490
  0.000945415816045  0.294077711446839  0.000000000000000  0.955781512496548
  0.001074429975386  0.469775384920765  0.000000000000000  0.882785980701182
  0.001129300086569  0.633456324113957  0.000000000000000  0.773778447257375
  0.000843688450090  0.059740486141813  0.202912875277752  0.977372722845310
  0.001075255720449  0.137576040847364  0.460262194248405  0.877058461865803
  0.001108577236864  0.339101652633629  0.503067399966204  0.794942299964208
  0.000956647532378  0.127167519143982  0.281760642244213  0.951020169374390
  0.001080663250717  0.269312074041351  0.433156129172016  0.860143461601762
  0.001126797131196  0.141978645260192  0.625616735858081  0.767102186220558
  0.001022568715358  0.067092846007383  0.379839521685916  0.922616110730809
  0.001108960267713  0.070577381832562  0.551750542142352  0.831017552413474
  0.001122790653436  0.278388847788215  0.602961915615919  0.747620610834086
  0.001032401847117  0.197957893891741  0.358960632958910  0.912118378409121
  0.001107249382284  0.208730706110327  0.534866643813548  0.818748536281022
  0.001121780048520  0.405512213787284  0.567499754607437  0.716591845467024
   total no. of   reducible points: 974; test:  1.00000000
  0.000110518923327  1.000000000000000  0.000000000000000  0.000000000000000
  0.000920523273809  0.707106781186547  0.707106781186547  0.000000000000000
  0.000913315978644  0.577350269189626  0.577350269189626  0.577350269189626
  0.000369042189802  0.037126364496571  0.037126364496571  0.998620681799919
  0.000560399092868  0.091400604122622  0.091400604122622  0.991610739722014
  0.000686529762928  0.153107785246991  0.153107785246991  0.976276606394685
  0.000772033855115  0.218092889166061  0.218092889166061  0.951247067480579
  0.000830154595889  0.283987453220018  0.283987453220018  0.915806886208668
  0.000868669255018  0.349117760096376  0.349117760096376  0.869616915181954
  0.000892707628585  0.412143146144431  0.412143146144431  0.812573722299916
  0.000906082023857  0.471899362714913  0.471899362714913  0.744729469632107
  0.000911977725494  0.527314545284234  0.527314545284234  0.666242253736104
  0.000912872013860  0.620947533244402  0.620947533244402  0.478380938076952
  0.000913071493569  0.656972271185729  0.656972271185729  0.369830866459426
  0.000915287378455  0.684178830907014  0.684178830907014  0.252583955700718
  0.000918743627432  0.701260433012363  0.701260433012363  0.128326186659723
  0.000517697731297  0.107238221547817  0.000000000000000  0.994233354821322
  0.000733114368210  0.258206895949697  0.000000000000000  0.966089643296119
  0.000846323283638  0.417275295530672  0.000000000000000  0.908780131681911
  0.000903112269425  0.570036691179250  0.000000000000000  0.821619237061433
  0.000648577845316  0.982798601826395  0.177177402261533  0.052106394770113
  0.000743503091098  0.962424923032623  0.247571646342629  0.111564095715648
  0.000799852789184  0.940200799412881  0.335461628906649  0.059058888532354
  0.000810173149747  0.932082204014320  0.317361524661198  0.174655167757863
  0.000848338957459  0.904367419939330  0.409026842708536  0.121723505109599
  0.000855629925731  0.891240756007475  0.385429115066922  0.239027847938172
  0.000880320867974  0.867643562846271  0.493222118485128  0.062662506241542
  0.000881104818243  0.858197998604162  0.478532067592243  0.185750519454734
  0.000885028234127  0.839675362404986  0.450742259315706  0.302946697352898
  0.000902134229904  0.816528856402219  0.563212302076210  0.126777480068428
  0.000901009167711  0.801546937078353  0.543430356969390  0.249411216236224
  0.000902269293843  0.777356306907035  0.512351848641987  0.364983226059765
  0.000915801617469  0.766162121390039  0.639427963474910  0.064245492242208
  0.000913157800319  0.755358414353351  0.626980550902439  0.190601822277923
  0.000910781357948  0.734430575755950  0.603116169309631  0.311227594714961
  0.000910576025897  0.704383718402177  0.569370249846844  0.423864478152234
   total no. of   reducible points:1202; test:  1.00000000
  0.000077771607433  1.000000000000000  0.000000000000000  0.000000000000000
  0.000755764641300  0.577350269189626  0.577350269189626  0.577350269189626
  0.000284163380609  0.032292906634139  0.032292906634139  0.998956623864238
  0.000437441912705  0.080367332714622  0.080367332714622  0.993520097262594
  0.000541717474087  0.135428996053165  0.135428996053165  0.981487633165117
  0.000614800089136  0.193896386111443  0.193896386111443  0.961669580940275
  0.000666439448580  0.253734371501127  0.253734371501127  0.933401166400522
  0.000702503935692  0.313525143475257  0.313525143475257  0.896328047546008
  0.000726851178925  0.372155833937534  0.372155833937534  0.850294108254619
  0.000742263753421  0.428680957519570  0.428680957519570  0.795276853253136
  0.000750954503584  0.482251012828299  0.482251012828299  0.731346649169981
  0.000754853505772  0.532067933356626  0.532067933356626  0.658640591360127
  0.000755408896977  0.617299819539427  0.617299819539427  0.487731345715221
  0.000755314717444  0.651067984912748  0.651067984912748  0.390155043595885
  0.000756476765329  0.677731525168736  0.677731525168736  0.285236672931301
  0.000758799180852  0.696310941064874  0.696310941064874  0.174075117999957
  0.000760826183203  0.705893500983175  0.705893500983175  0.058555363028785
  0.000402168044787  0.995554619409186  0.000000000000000  0.094185985013862
  0.000580487179395  0.973411590179421  0.000000000000000  0.229063039585986
  0.000679215195595  0.927569373238863  0.000000000000000  0.373650983980055
  0.000733674121129  0.856802242279510  0.000000000000000  0.515645147000147
  0.000758186630099  0.762349555371937  0.000000000000000  0.647165477620840
  0.000753825785980  0.570752290889222  0.438702803988950  0.694104943230444
  0.000748351724705  0.519646338840308  0.385890841476262  0.762270254565011
  0.000737176366111  0.464633753121535  0.330193737234385  0.821637128756598
  0.000718344889576  0.406390169755769  0.272542357356378  0.872105322408083
  0.000689581552982  0.345632946664309  0.213951023749525  0.913653558859526
  0.000648010580179  0.283139512105033  0.155592230978665  0.946373644151191
  0.000589755889659  0.219768202292533  0.098928789796861  0.970523071240677
  0.000509570884925  0.156469609865035  0.045986429106755  0.986611630545015
  0.000753690642891  0.602735667372129  0.337662514017343  0.722975616397235
  0.000747250596558  0.549603232025510  0.282230130972799  0.786309379645309
  0.000734301713228  0.492170775523457  0.224863234259254  0.840954489612314
  0.000713087158218  0.430942299859848  0.166622472345648  0.886862833757808
  0.000681702203211  0.366410818231367  0.108696490182217  0.924082347686118
  0.000638094114560  0.299018905775844  0.052519897841201  0.952800794667682
  0.000755038137792  0.626872401314500  0.229752365755002  0.744476220506856
  0.000747864664014  0.570732414483461  0.172308060709380  0.802853936449496
  0.000733591872060  0.509636090196037  0.114023846539051  0.852801042441985
  0.000711012052766  0.443872993831246  0.056115220958825  0.894330949550573
  0.000757136397869  0.641997847108239  0.116417442314087  0.757816431224233
  0.000748990832908  0.581721806180261  0.057975895314452  0.811319009870262
   total no. of   reducible points:1454; test:  1.00000000
  qrot: 

              1        2        3      
    1    1.0000   0.0000   0.0000
    2    0.0000   1.0000   0.0000
    3    0.0000   0.0000   1.0000
  me                     0   done genpts
  me                     1   done genpts
  me                     2   done genpts
  me                     3   done genpts
  me                     4   done genpts
  me                     5   done genpts
  me                     6   done genpts
  me                     7   done genpts
  me                     0   done uprt
  me                     1   done uprt
  me                     2   done uprt
  me                     3   done uprt
  me                     4   done uprt
  me                     5   done uprt
  me                     6   done uprt
  me                     7   done uprt
  me                     0  done mem
  me                     1  done mem
  me                     2  done mem
  me                     3  done mem
  me                     4  done mem
  me                     5  done mem
  me                     6  done mem
  me                     7  done mem
  dftinpanae: itol2e                     8  iaoacc                    14  tol_rho    1.0000000000000000E-010

            General Information
            -------------------
          SCF calculation type: DFT
          Wavefunction type:  spin polarized.
          No. of atoms     :     1
          No. of electrons :    16
           Alpha electrons :     9
            Beta electrons :     7
          Charge           :     0
          Spin multiplicity:     3
          Use of symmetry is: off; symmetry adaption is: off
          Maximum number of iterations:  50
          AO basis - number of functions:    59
                     number of shells:    16
          Convergence on energy requested:  1.00D-06
          Convergence on density requested:  1.00D-05
          Convergence on gradient requested:  5.00D-04

              XC Information
              --------------
                     Hartree-Fock (Exact) Exchange  1.000          
                     LC-wPBE(h)Exchange Functional  1.000          
            Perdew 1991 LDA Correlation Functional  1.000 local    
           PerdewBurkeErnz. Correlation Functional  1.000 non-local

           Range-Separation Parameters        
           ---------------------------
           Alpha           :  0.00
           Beta            :  1.00
           Gamma           :  0.40
           Short-Range HF  :     F

             Grid Information
             ----------------
          Grid used for XC integration:  xfine     
          Radial quadrature: Mura-Knowles        
          Angular quadrature: Lebedev. 
          Tag              B.-S. Rad. Rad. Pts. Rad. Cut. Ang. Pts.
          ---              ---------- --------- --------- ---------
          S                   1.00      125          10.0      1454
          Grid pruning is: on 
          Number of quadrature shells:   125
          Spatial weights used:  Erf1

          Convergence Information
          -----------------------
          Convergence aids based upon iterative change in 
          total energy or number of iterations. 
          Levelshifting, if invoked, occurs when the 
          HOMO/LUMO gap drops below (HL_TOL):  1.00D-02
          DIIS, if invoked, will attempt to extrapolate 
          using up to (NFOCK): 10 stored Fock matrices.

                    Damping( 0%)  Levelshifting(0.5)       DIIS
                  --------------- ------------------- ---------------
          dE  on:    start            ASAP                start   
          dE off:    2 iters         50 iters            50 iters 


      Screening Tolerance Information
      -------------------------------
          Density screening/tol_rho:  1.00D-10
          AO Gaussian exp screening on grid/accAOfunc:  14
          CD Gaussian exp screening on grid/accCDfunc:  20
          XC Gaussian exp screening on grid/accXCfunc:  20
          Schwarz screening/accCoul:  1.00D-08



                         Geometry "geometry" -> "geometry"
                         ---------------------------------

 Output coordinates in angstroms (scale by  1.889725989 to convert to a.u.)

  No.       Tag          Charge          X              Y              Z
 ---- ---------------- ---------- -------------- -------------- --------------
    1 S                   16.0000     0.00000000     0.00000000     0.00000000

      Atomic Mass 
      ----------- 

      S                 31.972070


 Effective nuclear repulsion energy (a.u.)       0.0000000000

            Nuclear Dipole moment (a.u.) 
            ----------------------------
        X                 Y               Z
 ---------------- ---------------- ----------------
     0.0000000000     0.0000000000     0.0000000000

  
  CAM type calculations without CDFIT are
  only available with the direct option.
  Forcing Direct SCF
  


     <<<<<<    Before call to DFT_SCF.    >>>>>>
     <<<<<< date:  Apr 24  time: 11:21:46 >>>>>>


 Setting tolerance for linear dependence to 1.00D-05






 Setting tolerance for linear dependence to 1.00D-05

 Setting tolerance for linear dependence to 1.00D-05
 Setting tolerance for linear dependence to 1.00D-05
 Setting tolerance for linear dependence to 1.00D-05
 Setting tolerance for linear dependence to 1.00D-05
 Setting tolerance for linear dependence to 1.00D-05
 Setting tolerance for linear dependence to 1.00D-05
  lindep tolerance =    1.0000000000000001E-005
  lindep tolerance =    1.0000000000000001E-005
  lindep tolerance =    1.0000000000000001E-005
  lindep tolerance =    1.0000000000000001E-005
  lindep tolerance =    1.0000000000000001E-005
  lindep tolerance =    1.0000000000000001E-005
  lindep tolerance =    1.0000000000000001E-005
  lindep tolerance =    1.0000000000000001E-005


     <<<<<<    Before 3c-2e initialize.   >>>>>>
     <<<<<< date:  Apr 24  time: 11:21:46 >>>>>>


 Setting fock-build task_bf   :      -1
                    maxquartet:   10000
                    maxeri    :  129600
                    maxscr    :       0
                    intacc    : 0.0D+00
                    denscreen : T
                    dentol    : 1.0D-06


      Superposition of Atomic Density Guess
      -------------------------------------

 Sum of atomic energies:        -397.48708453

      Non-variational initial energy
      ------------------------------

 Total energy =    -397.194008
 1-e energy   =    -549.333853
 2-e energy   =     152.139845
 HOMO         =      -0.286261
 LUMO         =      -0.286261


 Setting fock-build task_bf   :      -1
                    maxquartet:   10000
                    maxeri    :  129600
                    maxscr    :       0
                    intacc    : 0.0D+00
                    denscreen : T
                    dentol    : 1.0D-06


 Wrote molecular orbitals to ./s.movecs

  WARNING: movecs_in_org=atomic not equal to movecs_in=./s.movecs
   Time after variat. SCF:      0.7

 Setting fock-build task_bf   :      -1
                    maxquartet:   10000
                    maxeri    :  129600
                    maxscr    :       0
                    intacc    : 0.0D+00
                    denscreen : T
                    dentol    : 1.0D-06

   Time prior to 1st pass:      0.7


     <<<<<<      Before SCF iter loop.    >>>>>>
     <<<<<< date:  Apr 24  time: 11:21:46 >>>>>>

           DAMPING=T LEVELSHIFTING=F DIISING=T
          itol2e= 8 iAOacc=12 iXCacc=20


     <<<<<<            calling 1-e int    >>>>>>
     <<<<<< date:  Apr 24  time: 11:21:46 >>>>>>

    Kinetic Matrix Time:          0.0s

           Kinetic energy =    396.977165237126

    Potential Matrix Time:          0.0s


     <<<<<<    Before call to GETVXC.     >>>>>>
     <<<<<< date:  Apr 24  time: 11:21:46 >>>>>>



     <<<<<<    Before call to fock_2e.    >>>>>>
     <<<<<< date:  Apr 24  time: 11:21:46 >>>>>>



     <<<<<<     After call to fock_2e.    >>>>>>
     <<<<<< date:  Apr 24  time: 11:21:46 >>>>>>

    Fock_2e Build Time:          0.2s
  *** grid_quadv0:                    calc_type:                    1
  *** grid_quadv0:                    grid_written: F
  *** grid_quadv0:                    grad: T
  *** grid_quadv0:                    kske: F
  *** grid_quadv0:                    kslap: F
  *** grid_quadv0:                    do_scf: T
  *** grid_quadv0:                    calc_type:                    1
  *** grid_quadv0:                    grid_written: F
  *** grid_quadv0:                    grad: T
  *** grid_quadv0:                    kske: F
  *** grid_quadv0:                    kslap: F
  *** grid_quadv0:                    do_scf: T
  *** grid_quadv0:                    calc_type:                    1
  *** grid_quadv0:                    grid_written: F
  *** grid_quadv0:                    grad: T
  *** grid_quadv0:                    kske: F
  *** grid_quadv0:                    kslap: F
  *** grid_quadv0:                    do_scf: T
  *** grid_quadv0:                    fde_option:                    0
  *** grid_quadv0:                    fde_option:                    0
  *** grid_quadv0:                    n_per_rec:                 3070
  *** grid_quadv0:                    calc_type:                    1
  *** grid_quadv0:                    grid_written: F
  *** grid_quadv0:                    grad: T
  *** grid_quadv0:                    fde_option:                    0
  *** grid_quadv0:                    n_per_rec:                 3070
  *** grid_quadv0:                    calc_type:                    1
  *** grid_quadv0:                    grid_written: F
  *** grid_quadv0:                    grad: T
  *** grid_quadv0:                    kske: F
  *** grid_quadv0:                    kslap: F
  *** grid_quadv0:                    do_scf: T
  *** grid_quadv0:                    fde_option:                    0
  *** grid_quadv0:                    n_per_rec:                 3070
  *** grid_quadv0:                    n_per_rec:                 3070
  *** grid_quadv0:                    calc_type:                    1
  *** grid_quadv0:                    grid_written: F
  *** grid_quadv0:                    grad: T
  *** grid_quadv0:                    kske: F
  *** grid_quadv0:                    kslap: F
  *** grid_quadv0:                    do_scf: T
  *** grid_quadv0:                    fde_option:                    0
  *** grid_quadv0:                    n_per_rec:                 3070
  *** grid_quadv0:                    calc_type:                    1
  *** grid_quadv0:                    grid_written: F
  *** grid_quadv0:                    grad: T
  *** grid_quadv0:                    kske: F
  *** grid_quadv0:                    kslap: F
  *** grid_quadv0:                    do_scf: T
  *** grid_quadv0:                    fde_option:                    0
  *** grid_quadv0:                    n_per_rec:                 3070
  *** grid_quadv0:                    calc_type:                    1
  *** grid_quadv0:                    grid_written: F
  *** grid_quadv0:                    grad: T
  *** grid_quadv0:                    kske: F
  *** grid_quadv0:                    kslap: F
  *** grid_quadv0:                    do_scf: T
  *** grid_quadv0:                    fde_option:                    0
  *** grid_quadv0:                    n_per_rec:                 3070
  *** grid_quadv0:                    kske: F
  *** grid_quadv0:                    kslap: F
  *** grid_quadv0:                    do_scf: T
  *** grid_quadv0:                    fde_option:                    0
  *** grid_quadv0:                    n_per_rec:                 3070
   1: nuse=   8 avail= 12500000Mb on .
   3: nuse=   8 avail= 12500000Mb on .
   4: nuse=   8 avail= 12500000Mb on .
   5: nuse=   8 avail= 12500000Mb on .
   6: nuse=   8 avail= 12500000Mb on .
   7: nuse=   8 avail= 12500000Mb on .
   0: nuse=   8 avail= 12500000Mb on .
   2: nuse=   8 avail= 12500000Mb on .
 l_cube input   11.00

  atom type   l_cube   no. cubes   segmts   rad   sub
 ----------- -------- ----------- -------- ----- -----
        1     12.67        34         3      19     8

 Grid_pts file          = ./s.gridpts.0
 Record size in doubles =  12289        No. of grid_pts per rec  =   3070
 Max. records in memory =     10        Max. recs in file   = 126656358

 me   0 NQTOTC NQ/cube   19003    1055
 me   1 NQTOTC NQ/cube    9184    9184
 me   2 NQTOTC NQ/cube    9249    4624
 me   3 NQTOTC NQ/cube   10168    3389
 me   4 NQTOTC NQ/cube    8644    2881
 me   5 NQTOTC NQ/cube    8956    2985
 me   6 NQTOTC NQ/cube    8398    2799
 me   7 NQTOTC NQ/cube    9184    9184

 XC quadr. integrated density :      16.000000 npts:    82686 nctrs:        1

    Fock_xc Build Time:          0.1s


     <<<<<<    Before call to GETVCOUL.   >>>>>>
     <<<<<< date:  Apr 24  time: 11:21:46 >>>>>>



     <<<<<<    End of parallel region.    >>>>>>
     <<<<<< date:  Apr 24  time: 11:21:46 >>>>>>

    Total Fock Matrix Build Time:          0.3s
 Etnew, Ecore, Ecoul, Exc(1), Exc(2), Totsic:   -397.96446432846847       -548.40086915668189        175.84715998512439       -25.410755156910952        0.0000000000000000        0.0000000000000000     
  delta =   -397.96446432846847     
  delta =   -397.96446432846847     
  delta =   -397.96446432846847     
  delta =   -397.96446432846847     


         Total DFT energy =     -397.964464328468
      One electron energy =     -548.400869156682
           Coulomb energy =      175.847159985124
    Exchange-Corr. energy =      -25.410755156911
 Nuclear repulsion energy =        0.000000000000

 Numeric. integr. density =       15.999999999542
  delta =   -397.96446432846847     
  delta =   -397.96446432846847     
  delta =   -397.96446432846847     
  delta =   -397.96446432846847     

     Total iterative time =      2.2s




     <<<<<<        calling diis driver    >>>>>>
     <<<<<< date:  Apr 24  time: 11:21:46 >>>>>>

 nhist                     1  pulay matrix 
   0.0000E+00
  -1.0000E+00   1.4222E-01


     <<<<<<         called diis driver    >>>>>>
     <<<<<< date:  Apr 24  time: 11:21:46 >>>>>>


 global array: fock transf[1:59,1:59],  handle: -940 

            1           2           3           4           5           6  
       ----------- ----------- ----------- ----------- ----------- -----------
   1       3.42576    -0.00000     0.00000     0.00000    -1.04477     0.00000
   2      -0.00000     3.60469     0.00100     0.00765    -0.00000    -0.42929
   3       0.00000     0.00100     3.60157     0.00223     0.00000     0.76505
   4       0.00000     0.00765     0.00223     3.61828    -0.00000     0.03010
   5      -1.04477    -0.00000     0.00000    -0.00000     5.31457    -0.00000
   6       0.00000    -0.42929     0.76505     0.03010    -0.00000     1.18901
   7      -0.00000     0.76727     0.42824     0.04267    -0.00000    -0.00037
   8      -0.00000     0.01525     0.04470    -0.88343     0.00000     0.00087
   9       0.35264     0.00000    -0.00000    -0.00000    -0.91476     0.00000
  10      -0.00000     0.00001    -0.00177     0.00005     0.00000    -0.00236
  11      -1.11646    -0.00000     0.00000     0.00000     0.69047    -0.00000
  12       0.00000    -0.00255     0.00231    -0.00031     0.00000     0.00479
  13      -0.00000    -0.00260    -0.00214    -0.00052     0.00000    -0.00115
  14       0.00000    -0.00161    -0.00039    -0.00081     0.00000     0.00086
  15       0.00010     0.00000    -0.00000    -0.00000    -0.00032    -0.00000
  16      -0.00038     0.00000    -0.00000     0.00000     0.00126    -0.00000
  17      -0.00094    -0.00000    -0.00000    -0.00000     0.00309    -0.00000
  18      -0.00000     0.11586     0.00730     0.01081     0.00000    -0.15925
  19       0.00000    -0.01224     0.06355     0.09210     0.00000     0.20684
  20       0.00000    -0.00043     0.09739    -0.06076    -0.00000     0.26406
  21       0.00000    -0.00001     0.00059    -0.00002    -0.00000     0.00047
  22      -0.00055     0.00000     0.00000     0.00000     0.00182    -0.00000
  23       0.00210     0.00000    -0.00000    -0.00000    -0.00694     0.00000
  24      -0.00000     0.29302    -0.01774    -0.46413    -0.00000    -0.24199
  25      -0.00000     0.45755     0.08488     0.29420     0.00000    -0.19281
  26      -0.00000     0.06187    -0.53896     0.06026     0.00000    -0.68895
  27       0.00000    -0.00042     0.00093     0.00001    -0.00000     0.00090
  28       0.00000    -0.00113    -0.00027    -0.00012     0.00000     0.00028
  29       0.00000     0.00018     0.00042    -0.00005    -0.00000     0.00028
  30      -0.00024    -0.00000     0.00000    -0.00000     0.00063    -0.00000
  31       0.00034    -0.00000     0.00000    -0.00000    -0.00089     0.00000
  32      -0.00024    -0.00000     0.00000    -0.00000     0.00063    -0.00000
  33      -0.00000     0.04882     0.04892    -0.00628    -0.00000     0.03681
  34      -0.00000     0.04950    -0.04846     0.00330     0.00000    -0.13121
  35      -0.00000    -0.00330    -0.00691    -0.07254     0.00000    -0.01359
  36      -0.01565    -0.00000     0.00000    -0.00000     0.35747    -0.00000
  37      -0.00000     0.07339     0.01176     0.05990     0.00000     0.00778
  38       0.00000    -0.01342     0.09574    -0.00257     0.00000    -0.02857
  39      -0.00000     0.06112     0.00663    -0.07460    -0.00000     0.00826
  40       0.00005    -0.00000    -0.00000     0.00000    -0.00014     0.00000
  41      -0.00101    -0.00000     0.00000     0.00000     0.00269    -0.00000
  42       0.00001     0.00000    -0.00000     0.00000    -0.00004    -0.00000
  43       0.00002    -0.00000     0.00000    -0.00000    -0.00012    -0.00000
  44      -0.00006     0.00000    -0.00000    -0.00000     0.00031     0.00000
  45       0.04882     0.00000    -0.00000    -0.00000     0.15763    -0.00000
  46       0.00000     0.00450    -0.04244     0.00169     0.00000    -0.08622
  47       0.00000     0.03784     0.00322    -0.01968    -0.00000    -0.03602
  48      -0.00000    -0.02093    -0.00422    -0.04221     0.00000     0.01092
  49      -0.00012     0.00000    -0.00000    -0.00000     0.00065     0.00000
  50       0.00006    -0.00000    -0.00000     0.00000    -0.00031    -0.00000
  51      -0.10901    -0.00000     0.00000     0.00000    -0.06658    -0.00000
  52      -0.00000     0.01963     0.00324     0.04226     0.00000    -0.00826
  53      -0.00000     0.03999    -0.00787    -0.01816     0.00000    -0.04221
  54      -0.00000    -0.00593    -0.04381     0.00594    -0.00000    -0.05487
  55      -0.04489    -0.00000     0.00000     0.00000     0.24933     0.00000
  56       0.00000    -0.01149     0.03829     0.00035     0.00000     0.02236
  57      -0.00000     0.01220     0.00331     0.03964     0.00000    -0.00104
  58      -0.00000     0.03665     0.01111    -0.01152     0.00000    -0.00494
  59       0.03420     0.00000    -0.00000    -0.00000    -0.10869    -0.00000

            7           8           9          10          11          12  
       ----------- ----------- ----------- ----------- ----------- -----------
   1      -0.00000    -0.00000     0.35264    -0.00000    -1.11646     0.00000
   2       0.76727     0.01525     0.00000     0.00001    -0.00000    -0.00255
   3       0.42824     0.04470    -0.00000    -0.00177     0.00000     0.00231
   4       0.04267    -0.88343    -0.00000     0.00005     0.00000    -0.00031
   5      -0.00000     0.00000    -0.91476     0.00000     0.69047     0.00000
   6      -0.00037     0.00087     0.00000    -0.00236    -0.00000     0.00479
   7       1.19175    -0.00546     0.00000    -0.00131     0.00000    -0.00138
   8      -0.00546     1.19821     0.00000    -0.00021     0.00000     0.00046
   9       0.00000     0.00000     0.86065     0.00000    -1.22390    -0.00000
  10      -0.00131    -0.00021     0.00000     1.76259     0.00000    -0.00008
  11       0.00000     0.00000    -1.22390     0.00000     4.65381    -0.00000
  12      -0.00138     0.00046    -0.00000    -0.00008    -0.00000     1.76582
  13      -0.00468     0.00029    -0.00000     0.00007    -0.00000     0.00357
  14      -0.00281     0.00058    -0.00000     0.00001     0.00000     0.00001
  15       0.00000     0.00000     0.00024     0.00000     0.00002    -0.00000
  16       0.00000     0.00000    -0.00095    -0.00000    -0.00009    -0.00000
  17       0.00000     0.00000    -0.00235    -0.00000    -0.00023    -0.00000
  18       0.33492    -0.02543     0.00000    -0.00045    -0.00000    -0.00686
  19       0.07705    -0.29403    -0.00000    -0.00430    -0.00000     0.00698
  20       0.14173     0.21648    -0.00000    -0.00699     0.00000     0.00886
  21       0.00025     0.00005     0.00000    -0.57315    -0.00000    -0.00010
  22       0.00000     0.00000    -0.00138     0.00000    -0.00013     0.00000
  23      -0.00000     0.00000     0.00527    -0.00000     0.00052     0.00000
  24       0.31354     0.64704     0.00000    -0.00000     0.00000    -0.00018
  25       0.62689    -0.38535     0.00000     0.00000    -0.00000    -0.00135
  26      -0.28506    -0.12011     0.00000    -0.00004    -0.00000    -0.00012
  27       0.00011     0.00003    -0.00000     0.00012    -0.00000     0.54083
  28      -0.00098    -0.00002     0.00000    -0.00003    -0.00000     0.19331
  29       0.00026     0.00005     0.00000     0.00005     0.00000    -0.01048
  30      -0.00000     0.00000    -0.00037    -0.00000     0.00152    -0.00000
  31      -0.00000     0.00000     0.00052     0.00000    -0.00217     0.00000
  32       0.00000    -0.00000    -0.00037    -0.00000     0.00152    -0.00000
  33       0.13076     0.01943     0.00000     0.00170     0.00000    -0.00141
  34       0.03883    -0.00920    -0.00000    -0.00170     0.00000     0.00302
  35      -0.01839     0.13878     0.00000    -0.00016    -0.00000     0.00083
  36      -0.00000     0.00000    -0.35237    -0.00000    -0.12159    -0.00000
  37      -0.02483     0.02102     0.00000     0.00038    -0.00000     0.00311
  38      -0.01116    -0.00215     0.00000     0.00363     0.00000    -0.00537
  39      -0.01597    -0.02488    -0.00000     0.00031     0.00000     0.00222
  40      -0.00000    -0.00000     0.00008    -0.00000    -0.00033     0.00000
  41      -0.00000    -0.00000    -0.00157    -0.00000     0.00651     0.00000
  42       0.00000     0.00000    -0.00000    -0.00000     0.00034    -0.00000
  43       0.00000     0.00000    -0.00001    -0.00000     0.00091    -0.00000
  44      -0.00000    -0.00000     0.00003     0.00000    -0.00240     0.00000
  45      -0.00000    -0.00000     0.06361    -0.00000    -1.78460    -0.00000
  46      -0.03668    -0.00850    -0.00000     0.00391     0.00000    -0.00577
  47       0.07433     0.04436     0.00000    -0.00033     0.00000    -0.00462
  48      -0.04629     0.08481     0.00000     0.00024    -0.00000     0.00312
  49      -0.00000    -0.00000     0.00007     0.00000    -0.00499    -0.00000
  50      -0.00000    -0.00000    -0.00003     0.00000     0.00240    -0.00000
  51      -0.00000     0.00000    -0.01295    -0.00000     0.88667     0.00000
  52       0.03146    -0.06219     0.00000    -0.00017    -0.00000    -0.00310
  53       0.04729     0.02827    -0.00000     0.00070    -0.00000    -0.00619
  54      -0.04104    -0.01287     0.00000     0.00406    -0.00000    -0.00456
  55       0.00000     0.00000    -0.06136    -0.00000    -0.36649    -0.00000
  56       0.00497     0.00082    -0.00000    -0.00325    -0.00000     0.00574
  57       0.00837    -0.02271     0.00000    -0.00015    -0.00000    -0.00179
  58       0.02119     0.00709    -0.00000    -0.00095    -0.00000    -0.00334
  59      -0.00000    -0.00000     0.05341     0.00000     0.02444     0.00000

           13          14          15          16          17          18  
       ----------- ----------- ----------- ----------- ----------- -----------
   1      -0.00000     0.00000     0.00010    -0.00038    -0.00094    -0.00000
   2      -0.00260    -0.00161     0.00000     0.00000    -0.00000     0.11586
   3      -0.00214    -0.00039    -0.00000    -0.00000    -0.00000     0.00730
   4      -0.00052    -0.00081    -0.00000     0.00000    -0.00000     0.01081
   5       0.00000     0.00000    -0.00032     0.00126     0.00309     0.00000
   6      -0.00115     0.00086    -0.00000    -0.00000    -0.00000    -0.15925
   7      -0.00468    -0.00281     0.00000     0.00000     0.00000     0.33492
   8       0.00029     0.00058     0.00000     0.00000     0.00000    -0.02543
   9      -0.00000    -0.00000     0.00024    -0.00095    -0.00235     0.00000
  10       0.00007     0.00001     0.00000    -0.00000    -0.00000    -0.00045
  11      -0.00000     0.00000     0.00002    -0.00009    -0.00023    -0.00000
  12       0.00357     0.00001    -0.00000    -0.00000    -0.00000    -0.00686
  13       1.76667     0.00145     0.00000    -0.00000    -0.00000    -0.00698
  14       0.00145     1.75559    -0.00000     0.00000    -0.00000    -0.01142
  15       0.00000    -0.00000     1.34258    -0.00323    -0.00136     0.00000
  16      -0.00000     0.00000    -0.00323     1.36179     0.00007     0.00000
  17      -0.00000    -0.00000    -0.00136     0.00007     1.36197     0.00000
  18      -0.00698    -0.01142     0.00000     0.00000     0.00000     1.72908
  19      -0.00352     0.00303    -0.00000    -0.00000     0.00000     0.00368
  20      -0.00891    -0.00311     0.00000     0.00000     0.00000    -0.00195
  21       0.00009     0.00001    -0.00000     0.00000     0.00000     0.00025
  22       0.00000    -0.00000    -0.00045     0.00089     0.00533    -0.00000
  23       0.00000    -0.00000    -0.00007    -0.00095    -0.00180    -0.00000
  24       0.00015     0.00252     0.00000     0.00000    -0.00000     0.05740
  25      -0.00202    -0.00011    -0.00000    -0.00000     0.00000     0.11745
  26      -0.00033    -0.00005    -0.00000    -0.00000     0.00000     0.00792
  27      -0.13629    -0.13371    -0.00000    -0.00000     0.00000    -0.00129
  28       0.36865     0.39452    -0.00000    -0.00000    -0.00000    -0.00824
  29      -0.41954     0.38862     0.00000    -0.00000     0.00000    -0.00122
  30      -0.00000    -0.00000    -0.39344    -0.21362     0.35719    -0.00000
  31       0.00000    -0.00000     0.08434    -0.52608    -0.22241     0.00000
  32       0.00000    -0.00000     0.40150    -0.10296     0.39500    -0.00000
  33       0.00245     0.00373    -0.00000    -0.00000    -0.00000    -0.40349
  34      -0.00172     0.00280    -0.00000    -0.00000    -0.00000    -0.36834
  35       0.00108     0.00243    -0.00000    -0.00000     0.00000     0.07654
  36      -0.00000     0.00000    -0.00082     0.00319     0.00787    -0.00000
  37       0.00424     0.00362    -0.00000    -0.00000    -0.00000    -0.04153
  38       0.00374     0.00019    -0.00000    -0.00000    -0.00000     0.00403
  39       0.00266     0.00223     0.00000    -0.00000    -0.00000    -0.02957
  40      -0.00000     0.00000     0.00021    -0.00030    -0.00218     0.00000
  41       0.00000    -0.00000    -0.00001     0.00049     0.00125     0.00000
  42      -0.00000     0.00000     0.00083     0.00706    -0.00180    -0.00000
  43      -0.00000    -0.00000    -0.00990     0.00021     0.00151     0.00000
  44      -0.00000     0.00000    -0.00298    -0.00178    -0.00682    -0.00000
  45      -0.00000    -0.00000     0.00002    -0.00007    -0.00018    -0.00000
  46       0.00398     0.00044    -0.00000    -0.00000    -0.00000     0.00461
  47      -0.00528    -0.00171     0.00000     0.00000     0.00000     0.08443
  48       0.00475     0.00382     0.00000     0.00000    -0.00000    -0.05286
  49       0.00000     0.00000    -0.00005     0.00024     0.00085     0.00000
  50       0.00000    -0.00000    -0.00006    -0.00000     0.00043     0.00000
  51      -0.00000     0.00000     0.00004    -0.00016    -0.00040     0.00000
  52      -0.00452    -0.00377     0.00000     0.00000    -0.00000    -0.12812
  53      -0.00430    -0.00197    -0.00000    -0.00000    -0.00000    -0.21000
  54       0.00555     0.00104     0.00000     0.00000     0.00000     0.04450
  55       0.00000    -0.00000    -0.00049     0.00189     0.00466    -0.00000
  56      -0.00238     0.00004     0.00000     0.00000     0.00000     0.00658
  57      -0.00301    -0.00277     0.00000     0.00000    -0.00000    -0.01074
  58      -0.00571    -0.00206    -0.00000    -0.00000    -0.00000    -0.02521
  59      -0.00000     0.00000    -0.00005     0.00021     0.00052    -0.00000

           19          20          21          22          23          24  
       ----------- ----------- ----------- ----------- ----------- -----------
   1       0.00000     0.00000     0.00000    -0.00055     0.00210    -0.00000
   2      -0.01224    -0.00043    -0.00001     0.00000     0.00000     0.29302
   3       0.06355     0.09739     0.00059     0.00000    -0.00000    -0.01774
   4       0.09210    -0.06076    -0.00002     0.00000    -0.00000    -0.46413
   5       0.00000    -0.00000    -0.00000     0.00182    -0.00694    -0.00000
   6       0.20684     0.26406     0.00047    -0.00000     0.00000    -0.24199
   7       0.07705     0.14173     0.00025     0.00000    -0.00000     0.31354
   8      -0.29403     0.21648     0.00005     0.00000     0.00000     0.64704
   9      -0.00000    -0.00000     0.00000    -0.00138     0.00527     0.00000
  10      -0.00430    -0.00699    -0.57315     0.00000    -0.00000    -0.00000
  11      -0.00000     0.00000    -0.00000    -0.00013     0.00052     0.00000
  12       0.00698     0.00886    -0.00010     0.00000     0.00000    -0.00018
  13      -0.00352    -0.00891     0.00009     0.00000     0.00000     0.00015
  14       0.00303    -0.00311     0.00001    -0.00000    -0.00000     0.00252
  15      -0.00000     0.00000    -0.00000    -0.00045    -0.00007     0.00000
  16      -0.00000     0.00000     0.00000     0.00089    -0.00095     0.00000
  17       0.00000     0.00000     0.00000     0.00533    -0.00180    -0.00000
  18       0.00368    -0.00195     0.00025    -0.00000    -0.00000     0.05740
  19       1.73490    -0.00454     0.00237     0.00000     0.00000    -0.09565
  20      -0.00454     1.72931     0.00387     0.00000     0.00000     0.05278
  21       0.00237     0.00387     1.10044    -0.00000     0.00000    -0.00003
  22       0.00000     0.00000    -0.00000     1.34392    -0.00408    -0.00000
  23       0.00000     0.00000     0.00000    -0.00408     1.36727    -0.00000
  24      -0.09565     0.05278    -0.00003    -0.00000    -0.00000     2.00727
  25       0.05609    -0.02039     0.00041    -0.00000    -0.00000    -0.01548
  26      -0.06014    -0.11413    -0.00296    -0.00000    -0.00000    -0.00078
  27       0.00377     0.00617     0.00011     0.00000     0.00000    -0.00130
  28       0.00087    -0.00248    -0.00003    -0.00000    -0.00000    -0.00220
  29       0.00238     0.00241     0.00005     0.00000     0.00000     0.00062
  30      -0.00000     0.00000     0.00000     0.00147    -0.00031     0.00000
  31      -0.00000     0.00000    -0.00000    -0.00131     0.00067     0.00000
  32       0.00000    -0.00000     0.00000     0.00142    -0.00048    -0.00000
  33      -0.12529    -0.35377    -0.00628     0.00000    -0.00000     0.07764
  34       0.23464     0.33603     0.00628    -0.00000     0.00000     0.06520
  35       0.49087    -0.26146     0.00063    -0.00000     0.00000     0.15390
  36       0.00000    -0.00000    -0.00000     0.00462    -0.01767    -0.00000
  37      -0.02059     0.00907    -0.00040     0.00000    -0.00000    -0.05303
  38      -0.02764    -0.04362    -0.00388     0.00000     0.00000    -0.03336
  39       0.02874    -0.02099    -0.00034    -0.00000    -0.00000     0.39140
  40      -0.00000    -0.00000    -0.00000    -0.55674    -0.11622    -0.00000
  41       0.00000     0.00000     0.00000     0.11765    -0.56768     0.00000
  42       0.00000    -0.00000    -0.00000     0.00007     0.00009     0.00000
  43       0.00000    -0.00000     0.00000    -0.00030     0.00010    -0.00000
  44      -0.00000     0.00000    -0.00000     0.00084    -0.00039    -0.00000
  45      -0.00000    -0.00000     0.00000    -0.00010     0.00040     0.00000
  46      -0.05213    -0.08493    -0.00230     0.00000     0.00000     0.03268
  47      -0.03582     0.02644     0.00020    -0.00000     0.00000     0.53034
  48      -0.06134     0.03342    -0.00013    -0.00000     0.00000     0.32085
  49      -0.00000     0.00000     0.00000    -0.00603     0.00428     0.00000
  50       0.00000     0.00000     0.00000    -0.00817    -0.00456     0.00000
  51       0.00000     0.00000     0.00000    -0.00023     0.00089    -0.00000
  52      -0.19963     0.11912     0.00005    -0.00000     0.00000     0.36513
  53       0.13923    -0.02253    -0.00026     0.00000    -0.00000    -0.56600
  54       0.09989     0.22404    -0.00152    -0.00000     0.00000     0.10422
  55      -0.00000    -0.00000    -0.00000     0.00273    -0.01046    -0.00000
  56      -0.01622    -0.02221     0.00734     0.00000     0.00000    -0.02226
  57      -0.03376     0.02030     0.00039     0.00000    -0.00000    -0.07845
  58       0.01032    -0.01395     0.00215     0.00000    -0.00000     0.08410
  59       0.00000    -0.00000    -0.00000     0.00030    -0.00116     0.00000

           25          26          27          28          29          30  
       ----------- ----------- ----------- ----------- ----------- -----------
   1      -0.00000    -0.00000     0.00000     0.00000     0.00000    -0.00024
   2       0.45755     0.06187    -0.00042    -0.00113     0.00018    -0.00000
   3       0.08488    -0.53896     0.00093    -0.00027     0.00042     0.00000
   4       0.29420     0.06026     0.00001    -0.00012    -0.00005    -0.00000
   5       0.00000     0.00000    -0.00000     0.00000    -0.00000     0.00063
   6      -0.19281    -0.68895     0.00090     0.00028     0.00028    -0.00000
   7       0.62689    -0.28506     0.00011    -0.00098     0.00026    -0.00000
   8      -0.38535    -0.12011     0.00003    -0.00002     0.00005     0.00000
   9       0.00000     0.00000    -0.00000     0.00000     0.00000    -0.00037
  10       0.00000    -0.00004     0.00012    -0.00003     0.00005    -0.00000
  11      -0.00000    -0.00000    -0.00000    -0.00000     0.00000     0.00152
  12      -0.00135    -0.00012     0.54083     0.19331    -0.01048    -0.00000
  13      -0.00202    -0.00033    -0.13629     0.36865    -0.41954    -0.00000
  14      -0.00011    -0.00005    -0.13371     0.39452     0.38862    -0.00000
  15      -0.00000    -0.00000    -0.00000    -0.00000     0.00000    -0.39344
  16      -0.00000    -0.00000    -0.00000    -0.00000    -0.00000    -0.21362
  17       0.00000     0.00000     0.00000    -0.00000     0.00000     0.35719
  18       0.11745     0.00792    -0.00129    -0.00824    -0.00122    -0.00000
  19       0.05609    -0.06014     0.00377     0.00087     0.00238    -0.00000
  20      -0.02039    -0.11413     0.00617    -0.00248     0.00241     0.00000
  21       0.00041    -0.00296     0.00011    -0.00003     0.00005     0.00000
  22      -0.00000    -0.00000     0.00000    -0.00000     0.00000     0.00147
  23      -0.00000    -0.00000     0.00000    -0.00000     0.00000    -0.00031
  24      -0.01548    -0.00078    -0.00130    -0.00220     0.00062     0.00000
  25       2.01737     0.00095    -0.00108    -0.00584     0.00111    -0.00000
  26       0.00095     1.99536    -0.00488     0.00062    -0.00200    -0.00000
  27      -0.00108    -0.00488     1.10199     0.00362    -0.00079    -0.00000
  28      -0.00584     0.00062     0.00362     1.10227    -0.00768     0.00000
  29       0.00111    -0.00200    -0.00079    -0.00768     1.09743     0.00000
  30      -0.00000    -0.00000    -0.00000     0.00000     0.00000     0.89508
  31      -0.00000    -0.00000    -0.00000    -0.00000     0.00000    -0.00059
  32       0.00000     0.00000     0.00000    -0.00000     0.00000     0.01271
  33       0.11256    -0.11029    -0.00799     0.01443    -0.00160     0.00000
  34       0.08937     0.13651     0.01182     0.00827     0.00718     0.00000
  35      -0.10667    -0.00430     0.00034     0.00294     0.00192     0.00000
  36       0.00000    -0.00000    -0.00000     0.00000    -0.00000     0.00178
  37       0.39796     0.01359     0.00018     0.00356     0.00103    -0.00000
  38       0.00963    -0.39195    -0.00621     0.00089    -0.00309     0.00000
  39       0.04542    -0.03185    -0.00027     0.00649     0.00202     0.00000
  40       0.00000    -0.00000     0.00000     0.00000     0.00000    -0.00391
  41      -0.00000    -0.00000    -0.00000    -0.00000     0.00000     0.00169
  42      -0.00000    -0.00000    -0.00000    -0.00000    -0.00000    -0.10551
  43      -0.00000    -0.00000     0.00000     0.00000     0.00000     0.14708
  44       0.00000     0.00000     0.00000     0.00000     0.00000    -0.06613
  45      -0.00000     0.00000     0.00000    -0.00000    -0.00000    -0.00005
  46      -0.02568     0.61343    -0.00383     0.00053    -0.00147    -0.00000
  47       0.31343    -0.01516    -0.00167    -0.00356     0.00179     0.00000
  48      -0.53469    -0.03941     0.00054     0.00398    -0.00055     0.00000
  49       0.00000    -0.00000    -0.00000    -0.00000     0.00000    -0.00153
  50       0.00000    -0.00000    -0.00000     0.00000    -0.00000    -0.00133
  51       0.00000    -0.00000    -0.00000    -0.00000     0.00000     0.00254
  52      -0.57722    -0.05468    -0.00034    -0.00226     0.00027     0.00000
  53      -0.34812    -0.15834    -0.00162    -0.00233     0.00070    -0.00000
  54       0.13108    -0.66348    -0.00220     0.00102    -0.00122     0.00000
  55      -0.00000     0.00000     0.00000    -0.00000    -0.00000     0.00465
  56      -0.01008    -0.11292     0.01348     0.00097     0.00373    -0.00000
  57       0.09269     0.00716    -0.00077    -0.01093     0.00084    -0.00000
  58       0.07583    -0.02337    -0.00298    -0.01408     0.00648     0.00000
  59      -0.00000    -0.00000    -0.00000     0.00000    -0.00000    -0.00339

           31          32          33          34          35          36  
       ----------- ----------- ----------- ----------- ----------- -----------
[...]
  17       1.57783    -0.11572     6.06369     0.00002     0.00000
  18       6.05513     0.31680    -1.57127    -0.00000    -0.00000
  19       0.02340    -0.52734    -0.01616     0.00001    -0.00001
  20      -0.13303     0.00976    -0.51108    -0.00000    -0.00000
  21      -0.51054    -0.02671     0.13243     0.00000     0.00000
  22       0.00005    -0.00106    -0.00006     0.25331    -8.47849
  23       0.00000    -0.00000     0.00000    -0.00012    -0.00015
  24       0.00000     0.00000    -0.00000     0.00003     0.00004
  25       0.00005    -0.00106    -0.00006     0.25139    -8.48093
  26      -0.00000     0.00000     0.00000     0.00099     0.00126
  27       0.00005    -0.00106    -0.00006     0.25318    -8.47866
  28       0.00001    -0.00012     0.00000    -2.34792    -7.18489
  29      -0.00000     0.00000    -0.00000    -0.00003     0.00020
  30      -0.00000    -0.00000     0.00000     0.00001    -0.00005
  31       0.00001    -0.00012     0.00000    -2.34836    -7.18180
  32       0.00000     0.00000    -0.00000     0.00022    -0.00160
  33       0.00001    -0.00012     0.00000    -2.34795    -7.18468
  34       0.00002    -0.00050    -0.00004     2.79817    -1.89079
  35      -0.00000     0.00000    -0.00000     0.00003     0.00006
  36      -0.00000    -0.00000     0.00000    -0.00001    -0.00002
  37       0.00002    -0.00050    -0.00004     2.79864    -1.88986
  38      -0.00000    -0.00000     0.00000    -0.00024    -0.00048
  39       0.00002    -0.00050    -0.00004     2.79820    -1.89073
  40       0.67537   -15.22097    -0.46661     0.00027    -0.00025
  41      -3.83989     0.28193   -14.75316    -0.00004    -0.00001
  42     -14.73604    -0.77106     3.82295     0.00001     0.00000
  43       0.67523   -15.21612    -0.46668     0.00027    -0.00025
  44       0.00039    -0.00250     0.00004     0.00000    -0.00000
  45       0.67528   -15.22065    -0.46661     0.00027    -0.00025
  46      -3.83865     0.28153   -14.75388    -0.00004    -0.00001
  47     -14.73198    -0.77068     3.82351     0.00001     0.00000
  48      -3.84223     0.28149   -14.75330    -0.00004    -0.00001
  49     -14.73573    -0.77096     3.82297     0.00001     0.00000
  50       0.29252    -6.59257    -0.20218     0.00013    -0.00012
  51      -1.66314     0.12185    -6.39245    -0.00002    -0.00000
  52      -6.38253    -0.33390     1.65646     0.00000     0.00000
  53       0.29257    -6.59450    -0.20217     0.00013    -0.00012
  54      -0.00016     0.00100    -0.00000    -0.00000     0.00000
  55       0.29255    -6.59269    -0.20218     0.00013    -0.00012
  56      -1.66363     0.12201    -6.39240    -0.00002    -0.00000
  57      -6.38415    -0.33404     1.65642     0.00000     0.00000
  58      -1.66220     0.12203    -6.39244    -0.00002    -0.00000
  59      -6.38266    -0.33393     1.65646     0.00000     0.00000
  int_init: cando_txs set to always be  F
                                NWChem TDDFT Module
                                -------------------


            General Information
            -------------------
           No. of orbitals :     118
            Alpha orbitals :      59
             Beta orbitals :      59
        Alpha frozen cores :       0
         Beta frozen cores :       0
     Alpha frozen virtuals :       0
      Beta frozen virtuals :       0
         Spin multiplicity :       3
    Number of AO functions :      59
        Use of symmetry is : off
      Symmetry adaption is : off
         Schwarz screening :  0.10D-07

              XC Information
              --------------
              Hartree-Fock (Exact) Exchange   1.00          
              LC-wPBE(h)Exchange Functional   1.00          
     Perdew 1991 LDA Correlation Functional   1.00 local    
    PerdewBurkeErnz. Correlation Functional   1.00 non-local
           Alpha           :  0.00
           Beta            :  1.00
           Gamma           :  0.40

             TDDFT Information
             -----------------
          Calculation type : TDDFT             
         Wavefunction type : Unrestricted
          No. of electrons :      16
           Alpha electrons :       9
            Beta electrons :       7
              No. of roots :       5
          Max subspacesize :    5000
            Max iterations :     100
               Target root :       1
           Target symmetry : none
      Symmetry restriction : off
                 Algorithm : Optimal
        Davidson threshold :  0.10D-03

            Memory Information
            ------------------
          Available GA space size is       52428793038 doubles
          Available MA space size is        4194415692 doubles
          Length of a trial vector is          450     364
          Algorithm : Incore multiple tensor contraction
          Estimated peak GA usage is          16872948 doubles
          Estimated peak MA usage is             18000 doubles

    5 smallest eigenvalue differences (eV) 
--------------------------------------------------------
  No. Spin  Occ  Vir  Irrep   E(Occ)    E(Vir)   E(Diff)
--------------------------------------------------------
    1    2    7    8 a        -0.379    -0.064     8.563
    2    2    7    9 a        -0.379    -0.064     8.563
    3    2    7   10 a        -0.379     0.071    12.238
    4    2    7   11 a        -0.379     0.089    12.724
    5    2    7   12 a        -0.379     0.091    12.782
--------------------------------------------------------

  Entering Davidson iterations
  Unrestricted

  Iter   NTrls   NConv    DeltaV     DeltaE      Time   
  ----  ------  ------  ---------  ---------  --------- 
    1      5       0     0.13E+00   0.10+100        2.8
    2     15       0     0.60E-01   0.17E-01        5.6
    3     25       0     0.14E+00   0.10E-01        9.4
    4     33       0     0.31E-01   0.14E-01        8.1
    5     41       1     0.55E-02   0.47E-03        8.0
    6     48       3     0.98E-03   0.11E-04        7.3
    7     52       3     0.12E-03   0.27E-06        5.1
    8     56       5     0.56E-04   0.43E-08        5.0
  ----  ------  ------  ---------  ---------  --------- 
  Convergence criterion met

  Ground state a        -397.984851432032 a.u.
  <S2> =   2.0057

  ----------------------------------------------------------------------------
  Root   1         a              0.000266056 a.u.                0.0072 eV 
  <S2> =   2.0076
  ----------------------------------------------------------------------------
     Transition Moments    X  0.00000   Y -0.00000   Z  0.00000
     Transition Moments   XX -0.41411  XY -6.54299  XZ  1.68891
     Transition Moments   YY  0.29073  YZ -0.27576  ZZ  0.12338
     Dipole Oscillator Strength                    0.0000000000
     Electric Quadrupole                           0.0000000000
     Magnetic Dipole                               0.0000000001
     Total Oscillator Strength                     0.0000000001

     Occ.    6 alpha a   ---  Virt.   17 alpha a   -0.13446 X
     Occ.    6 alpha a   ---  Virt.   17 alpha a   -0.13437 Y
     Occ.    6 alpha a   ---  Virt.   26 alpha a   -0.16702 X
     Occ.    6 alpha a   ---  Virt.   26 alpha a   -0.16694 Y
     Occ.    7 alpha a   ---  Virt.   13 alpha a   -0.06943 X
     Occ.    7 alpha a   ---  Virt.   13 alpha a   -0.06933 Y
     Occ.    7 alpha a   ---  Virt.   22 alpha a    0.07426 X
     Occ.    7 alpha a   ---  Virt.   22 alpha a    0.07419 Y
     Occ.    7 alpha a   ---  Virt.   31 alpha a   -0.07099 X
     Occ.    7 alpha a   ---  Virt.   31 alpha a   -0.07095 Y
     Occ.    7 alpha a   ---  Virt.   47 alpha a   -0.05700 X
     Occ.    7 alpha a   ---  Virt.   47 alpha a   -0.05699 Y
     Occ.    8 alpha a   ---  Virt.   30 alpha a   -0.07099 X
     Occ.    8 alpha a   ---  Virt.   30 alpha a   -0.07095 Y
     Occ.    8 alpha a   ---  Virt.   46 alpha a   -0.05700 X
     Occ.    8 alpha a   ---  Virt.   46 alpha a   -0.05699 Y
     Occ.    9 alpha a   ---  Virt.   11 alpha a   -0.07083 X
     Occ.    9 alpha a   ---  Virt.   11 alpha a   -0.07071 Y
     Occ.    9 alpha a   ---  Virt.   20 alpha a    0.07341 X
     Occ.    9 alpha a   ---  Virt.   20 alpha a    0.07334 Y
     Occ.    9 alpha a   ---  Virt.   32 alpha a   -0.10469 X
     Occ.    9 alpha a   ---  Virt.   32 alpha a   -0.10463 Y
     Occ.    9 alpha a   ---  Virt.   48 alpha a   -0.07302 X
     Occ.    9 alpha a   ---  Virt.   48 alpha a   -0.07300 Y
     Occ.    6 beta  a   ---  Virt.   16 beta  a    0.14013 X
     Occ.    6 beta  a   ---  Virt.   16 beta  a    0.13984 Y
     Occ.    6 beta  a   ---  Virt.   24 beta  a    0.11564 X
     Occ.    6 beta  a   ---  Virt.   24 beta  a    0.11548 Y
     Occ.    7 beta  a   ---  Virt.    8 beta  a    3.37595 X
     Occ.    7 beta  a   ---  Virt.    8 beta  a    3.22823 Y
     Occ.    7 beta  a   ---  Virt.   12 beta  a    0.48425 X
     Occ.    7 beta  a   ---  Virt.   12 beta  a    0.46406 Y
     Occ.    7 beta  a   ---  Virt.   22 beta  a   -0.24241 X
     Occ.    7 beta  a   ---  Virt.   22 beta  a   -0.23279 Y
     Occ.    7 beta  a   ---  Virt.   37 beta  a    0.06175 X
     Occ.    7 beta  a   ---  Virt.   37 beta  a    0.05928 Y
  ----------------------------------------------------------------------------
  Root   2         a              0.000266097 a.u.                0.0072 eV 
  <S2> =   2.0076
  ----------------------------------------------------------------------------
     Transition Moments    X -0.00000   Y  0.00000   Z  0.00000
     Transition Moments   XX  0.01226  XY  0.14178  XZ -0.25071
     Transition Moments   YY -3.29721  YZ -5.91215  ZZ  3.28494
     Dipole Oscillator Strength                    0.0000000000
     Electric Quadrupole                           0.0000000000
     Magnetic Dipole                               0.0000000001
     Total Oscillator Strength                     0.0000000001

     Occ.    6 alpha a   ---  Virt.   16 alpha a   -0.13444 X
     Occ.    6 alpha a   ---  Virt.   16 alpha a   -0.13436 Y
     Occ.    6 alpha a   ---  Virt.   25 alpha a   -0.16702 X
     Occ.    6 alpha a   ---  Virt.   25 alpha a   -0.16694 Y
     Occ.    7 alpha a   ---  Virt.   30 alpha a   -0.07098 X
     Occ.    7 alpha a   ---  Virt.   30 alpha a   -0.07094 Y
     Occ.    7 alpha a   ---  Virt.   46 alpha a   -0.05700 X
     Occ.    7 alpha a   ---  Virt.   46 alpha a   -0.05698 Y
     Occ.    8 alpha a   ---  Virt.   13 alpha a   -0.06943 X
     Occ.    8 alpha a   ---  Virt.   13 alpha a   -0.06934 Y
     Occ.    8 alpha a   ---  Virt.   22 alpha a    0.07427 X
     Occ.    8 alpha a   ---  Virt.   22 alpha a    0.07419 Y
     Occ.    8 alpha a   ---  Virt.   31 alpha a    0.07098 X
     Occ.    8 alpha a   ---  Virt.   31 alpha a    0.07094 Y
     Occ.    8 alpha a   ---  Virt.   47 alpha a    0.05700 X
     Occ.    8 alpha a   ---  Virt.   47 alpha a    0.05698 Y
     Occ.    9 alpha a   ---  Virt.   12 alpha a   -0.07080 X
     Occ.    9 alpha a   ---  Virt.   12 alpha a   -0.07069 Y
     Occ.    9 alpha a   ---  Virt.   21 alpha a    0.07341 X
     Occ.    9 alpha a   ---  Virt.   21 alpha a    0.07333 Y
     Occ.    9 alpha a   ---  Virt.   33 alpha a   -0.10469 X
     Occ.    9 alpha a   ---  Virt.   33 alpha a   -0.10463 Y
     Occ.    9 alpha a   ---  Virt.   49 alpha a   -0.07301 X
     Occ.    9 alpha a   ---  Virt.   49 alpha a   -0.07298 Y
     Occ.    6 beta  a   ---  Virt.   15 beta  a    0.14011 X
     Occ.    6 beta  a   ---  Virt.   15 beta  a    0.13983 Y
     Occ.    6 beta  a   ---  Virt.   23 beta  a    0.11562 X
     Occ.    6 beta  a   ---  Virt.   23 beta  a    0.11547 Y
     Occ.    7 beta  a   ---  Virt.    9 beta  a    3.37571 X
     Occ.    7 beta  a   ---  Virt.    9 beta  a    3.22797 Y
     Occ.    7 beta  a   ---  Virt.   13 beta  a    0.48422 X
     Occ.    7 beta  a   ---  Virt.   13 beta  a    0.46402 Y
     Occ.    7 beta  a   ---  Virt.   21 beta  a   -0.24239 X
     Occ.    7 beta  a   ---  Virt.   21 beta  a   -0.23278 Y
     Occ.    7 beta  a   ---  Virt.   36 beta  a    0.06174 X
     Occ.    7 beta  a   ---  Virt.   36 beta  a    0.05928 Y
  ----------------------------------------------------------------------------
  Root   3         a              0.263351920 a.u.                7.1662 eV 
  <S2> =   3.5136
  ----------------------------------------------------------------------------
     Transition Moments    X  0.01423   Y  0.45008   Z -0.11661
     Transition Moments   XX  0.00000  XY  0.00000  XZ -0.00000
     Transition Moments   YY -0.00000  YZ -0.00000  ZZ -0.00000
     Dipole Oscillator Strength                    0.0379887851
     Electric Quadrupole                           0.0000000000
     Magnetic Dipole                               0.0000000000
     Total Oscillator Strength                     0.0379887851

     Occ.    9 alpha a   ---  Virt.   10 alpha a    0.25402 X
     Occ.    9 alpha a   ---  Virt.   19 alpha a   -0.07618 X
     Occ.    7 beta  a   ---  Virt.   10 beta  a   -0.94253 X
     Occ.    7 beta  a   ---  Virt.   19 beta  a    0.18985 X
  ----------------------------------------------------------------------------
  Root   4         a              0.284288075 a.u.                7.7359 eV 
  <S2> =   2.4943
  ----------------------------------------------------------------------------
     Transition Moments    X -0.02335   Y -0.73823   Z  0.19127
     Transition Moments   XX -0.00000  XY -0.00000  XZ  0.00000
     Transition Moments   YY -0.00000  YZ  0.00000  ZZ  0.00000
     Dipole Oscillator Strength                    0.1103264457
     Electric Quadrupole                           0.0000000000
     Magnetic Dipole                               0.0000000000
     Total Oscillator Strength                     0.1103264457

     Occ.    9 alpha a   ---  Virt.   10 alpha a    0.94431 X
     Occ.    9 alpha a   ---  Virt.   19 alpha a   -0.18672 X
     Occ.    7 beta  a   ---  Virt.   10 beta  a    0.26632 X
  ----------------------------------------------------------------------------
  Root   5         a              0.305825345 a.u.                8.3219 eV 
  <S2> =   3.5523
  ----------------------------------------------------------------------------
     Transition Moments    X  0.00000   Y -0.00000   Z  0.00000
     Transition Moments   XX  0.25879  XY  0.04087  XZ -0.01059
     Transition Moments   YY  1.54986  YZ -0.33484  ZZ  0.34425
     Dipole Oscillator Strength                    0.0000000000
     Electric Quadrupole                           0.0000000967
     Magnetic Dipole                               0.0000000000
     Total Oscillator Strength                     0.0000000967

     Occ.    7 alpha a   ---  Virt.   11 alpha a   -0.06514 X
     Occ.    8 alpha a   ---  Virt.   12 alpha a   -0.06514 X
     Occ.    9 alpha a   ---  Virt.   13 alpha a   -0.28213 X
     Occ.    9 alpha a   ---  Virt.   22 alpha a    0.09070 X
     Occ.    7 beta  a   ---  Virt.   11 beta  a    0.93202 X
     Occ.    7 beta  a   ---  Virt.   20 beta  a   -0.17023 X

              Target root =      1
          Target symmetry = none
      Ground state energy =   -397.984851432032
        Excitation energy =      0.000266055806
     Excited state energy =   -397.984585376226

  stored tddft:energy   -397.98458537622605     

 Task  times  cpu:       48.2s     wall:       55.3s


                                NWChem Input Module
                                -------------------


 Summary of allocated global arrays
-----------------------------------
  No active global arrays


MA_summarize_allocated_blocks: starting scan ...
heap block 'gridpts', handle 114, address 0x12dd4e28:
	type of elements:		double precision
	number of elements:		1048462957
	address of client space:	0x12dd4e80
	index for client space:		11404583
	total number of bytes:		8387703752
MA_summarize_allocated_blocks: scan completed: 1 heap block, 0 stack blocks
MA usage statistics:

	allocation statistics:
					      heap	     stack
					      ----	     -----
	current number of blocks	         1	         0
	maximum number of blocks	        18	        54
	current total bytes		8387703752	         0
	maximum total bytes		8388693552	  22513480
	maximum total K-bytes		   8388694	     22514
	maximum total M-bytes		      8389	        23


                                     CITATION
                                     --------
                Please cite the following reference when publishing
                           results obtained with NWChem:

          E. Apra, E. J. Bylaska, W. A. de Jong, N. Govind, K. Kowalski,
       T. P. Straatsma, M. Valiev, H. J. J. van Dam, Y. Alexeev, J. Anchell,
       V. Anisimov, F. W. Aquino, R. Atta-Fynn, J. Autschbach, N. P. Bauman,
     J. C. Becca, D. E. Bernholdt, K. Bhaskaran-Nair, S. Bogatko, P. Borowski,
         J. Boschen, J. Brabec, A. Bruner, E. Cauet, Y. Chen, G. N. Chuev,
      C. J. Cramer, J. Daily, M. J. O. Deegan, T. H. Dunning Jr., M. Dupuis,
   K. G. Dyall, G. I. Fann, S. A. Fischer, A. Fonari, H. Fruchtl, L. Gagliardi,
      J. Garza, N. Gawande, S. Ghosh, K. Glaesemann, A. W. Gotz, J. Hammond,
       V. Helms, E. D. Hermes, K. Hirao, S. Hirata, M. Jacquelin, L. Jensen,
   B. G. Johnson, H. Jonsson, R. A. Kendall, M. Klemm, R. Kobayashi, V. Konkov,
      S. Krishnamoorthy, M. Krishnan, Z. Lin, R. D. Lins, R. J. Littlefield,
      A. J. Logsdail, K. Lopata, W. Ma, A. V. Marenich, J. Martin del Campo,
   D. Mejia-Rodriguez, J. E. Moore, J. M. Mullin, T. Nakajima, D. R. Nascimento,
    J. A. Nichols, P. J. Nichols, J. Nieplocha, A. Otero-de-la-Roza, B. Palmer,
    A. Panyala, T. Pirojsirikul, B. Peng, R. Peverati, J. Pittner, L. Pollack,
   R. M. Richard, P. Sadayappan, G. C. Schatz, W. A. Shelton, D. W. Silverstein,
   D. M. A. Smith, T. A. Soares, D. Song, M. Swart, H. L. Taylor, G. S. Thomas,
            V. Tipparaju, D. G. Truhlar, K. Tsemekhman, T. Van Voorhis,
      A. Vazquez-Mayagoitia, P. Verma, O. Villa, A. Vishnu, K. D. Vogiatzis,
        D. Wang, J. H. Weare, M. J. Williamson, T. L. Windus, K. Wolinski,
        A. T. Wong, Q. Wu, C. Yang, Q. Yu, M. Zacharias, Z. Zhang, Y. Zhao,
                                and R. J. Harrison
                        "NWChem: Past, present, and future
                         J. Chem. Phys. 152, 184102 (2020)
                               doi:10.1063/5.0004997

                                      AUTHORS
                                      -------
  E. Apra, E. J. Bylaska, N. Govind, K. Kowalski, M. Valiev, D. Mejia-Rodriguez,
       A. Kunitsa, N. P. Bauman, A. Panyala, W. A. de Jong, T. P. Straatsma,
   H. J. J. van Dam, D. Wang, T. L. Windus, J. Hammond, J. Autschbach, A. Woods,
    K. Bhaskaran-Nair, J. Brabec, K. Lopata, S. A. Fischer, S. Krishnamoorthy,
     M. Jacquelin, W. Ma, M. Klemm, O. Villa, Y. Chen, V. Anisimov, F. Aquino,
     S. Hirata, M. T. Hackler, E. Hermes, L. Jensen, J. E. Moore, J. C. Becca,
      V. Konjkov, T. Risthaus, M. Malagoli, A. Marenich, A. Otero-de-la-Roza,
        J. Mullin, P. Nichols, R. Peverati, J. Pittner, Y. Zhao, P.-D. Fan,
        A. Fonari, M. J. Williamson, R. J. Harrison, J. R. Rehr, M. Dupuis,
     D. Silverstein, D. M. A. Smith, J. Nieplocha, V. Tipparaju, M. Krishnan,
     B. E. Van Kuiken, A. Vazquez-Mayagoitia, M. Swart, Q. Wu, T. Van Voorhis,
     A. A. Auer, M. Nooijen, L. D. Crosby, E. Brown, G. Cisneros, G. I. Fann,
   H. Fruchtl, J. Garza, K. Hirao, R. A. Kendall, J. A. Nichols, K. Tsemekhman,
    K. Wolinski, J. Anchell, D. E. Bernholdt, P. Borowski, T. Clark, D. Clerc,
   H. Dachsel, M. J. O. Deegan, K. Dyall, D. Elwood, E. Glendening, M. Gutowski,
   A. C. Hess, J. Jaffe, B. G. Johnson, J. Ju, R. Kobayashi, R. Kutteh, Z. Lin,
   R. Littlefield, X. Long, B. Meng, T. Nakajima, S. Niu, L. Pollack, M. Rosing,
   K. Glaesemann, G. Sandrone, M. Stave, H. Taylor, G. Thomas, J. H. van Lenthe,
                               A. T. Wong, Z. Zhang.

 Total times  cpu:       48.2s     wall:       55.6s
