 argument  1 = /home/aditisingh4812/nw_chem/nwchem-run/nwchem-run/tddft/open/open_atom/geom-MOL-0.4/se.nw
                                         
                                         


             Northwest Computational Chemistry Package (NWChem) 7.2.3
             --------------------------------------------------------


                    Environmental Molecular Sciences Laboratory
                       Pacific Northwest National Laboratory
                                Richland, WA 99352

                              Copyright (c) 1994-2022
                       Pacific Northwest National Laboratory
                            Battelle Memorial Institute

             NWChem is an open-source computational chemistry package
                        distributed under the terms of the
                      Educational Community License (ECL) 2.0
             A copy of the license is included with this distribution
                              in the LICENSE.TXT file

                                  ACKNOWLEDGMENT
                                  --------------

            This software and its documentation were developed at the
            EMSL at Pacific Northwest National Laboratory, a multiprogram
            national laboratory, operated for the U.S. Department of Energy
            by Battelle under Contract Number DE-AC05-76RL01830. Support
            for this work was provided by the Department of Energy Office
            of Biological and Environmental Research, Office of Basic
            Energy Sciences, and the Office of Advanced Scientific Computing.


           Job information
           ---------------

    hostname        = p17
    program         = /home/aditisingh4812/nw_chem/nwchem-7.2.3-release.revision-d690e065-srconly.2024-08-27/nwchem-7.2.3/bin/LINUX64/nwchem
    date            = Thu Apr 24 11:22:42 2025

    compiled        = Mon_Apr_07_18:51:54_2025
    source          = /home/aditisingh4812/nw_chem/nwchem-7.2.3-release.revision-d690e065-srconly.2024-08-27/nwchem-7.2.3
    nwchem branch   = 7.2.3
    nwchem revision = d690e065
    ga revision     = 5.8.0
    use scalapack   = F
    input           = /home/aditisingh4812/nw_chem/nwchem-run/nwchem-run/tddft/open/open_atom/geom-MOL-0.4/se.nw
    prefix          = se.
    data base       = ./se.db
    status          = startup
    nproc           =        8
    time left       =     -1s



           Memory information
           ------------------

    heap     = 2621440000 doubles =  20000.0 Mbytes
    stack    = 2621439997 doubles =  20000.0 Mbytes
    global   = 6553600000 doubles =  50000.0 Mbytes (distinct from heap & stack)
    total    = ********** doubles =  90000.0 Mbytes
    verify   = yes
    hardfail = no 


           Directory information
           ---------------------

  0 permanent = .
  0 scratch   = .




                                NWChem Input Module
                                -------------------



 Scaling coordinates for geometry "geometry" by  1.889725989
 (inverse scale =  0.529177249)



                             Geometry "geometry" -> ""
                             -------------------------

 Output coordinates in angstroms (scale by  1.889725989 to convert to a.u.)

  No.       Tag          Charge          X              Y              Z
 ---- ---------------- ---------- -------------- -------------- --------------
    1 Se                  34.0000     0.00000000     0.00000000     0.00000000

      Atomic Mass 
      ----------- 

      Se                78.918300


 Effective nuclear repulsion energy (a.u.)       0.0000000000

            Nuclear Dipole moment (a.u.) 
            ----------------------------
        X                 Y               Z
 ---------------- ---------------- ----------------
     0.0000000000     0.0000000000     0.0000000000


            XYZ format geometry
            -------------------
     1
 geometry
 Se                    0.00000000     0.00000000     0.00000000



 Summary of "ao basis" -> "" (cartesian)
 ------------------------------------------------------------------------------
       Tag                 Description            Shells   Functions and Types
 ---------------- ------------------------------  ------  ---------------------
 *                        aug-cc-pVTZ                 on all atoms 


  pbe96 is a nonlocal functional; adding pw91lda local functional. 

                                 NWChem DFT Module
                                 -----------------


                      Basis "ao basis" -> "ao basis" (cartesian)
                      -----
  Se (Selenium)
  -------------
            Exponent  Coefficients 
       -------------- ---------------------------------------------------------
  1 S  9.56360000E+06  0.000006
  1 S  1.43210000E+06  0.000049
  1 S  3.25910000E+05  0.000257
  1 S  9.23120000E+04  0.001086
  1 S  3.01160000E+04  0.003940
  1 S  1.08720000E+04  0.012704
  1 S  4.24010000E+03  0.036716
  1 S  1.75840000E+03  0.093867
  1 S  7.66590000E+02  0.201768
  1 S  3.48430000E+02  0.328054
  1 S  1.64030000E+02  0.323833
  1 S  7.91420000E+01  0.135234
  1 S  3.55240000E+01  0.011708
  1 S  1.73050000E+01 -0.000344
  1 S  8.37840000E+00  0.000167
  1 S  3.74050000E+00 -0.000119
  1 S  1.68900000E+00  0.000020
  1 S  2.55200000E-01  0.000008

  2 S  9.56360000E+06 -0.000002
  2 S  1.43210000E+06 -0.000015
  2 S  3.25910000E+05 -0.000081
  2 S  9.23120000E+04 -0.000340
  2 S  3.01160000E+04 -0.001240
  2 S  1.08720000E+04 -0.004018
  2 S  4.24010000E+03 -0.011867
  2 S  1.75840000E+03 -0.031534
  2 S  7.66590000E+02 -0.074644
  2 S  3.48430000E+02 -0.145218
  2 S  1.64030000E+02 -0.203844
  2 S  7.91420000E+01 -0.078871
  2 S  3.55240000E+01  0.384583
  2 S  1.73050000E+01  0.586527
  2 S  8.37840000E+00  0.197359
  2 S  3.74050000E+00  0.010010
  2 S  1.68900000E+00  0.001316
  2 S  2.55200000E-01  0.000111

  3 S  9.56360000E+06  0.000001
  3 S  1.43210000E+06  0.000006
  3 S  3.25910000E+05  0.000032
  3 S  9.23120000E+04  0.000134
  3 S  3.01160000E+04  0.000488
  3 S  1.08720000E+04  0.001582
  3 S  4.24010000E+03  0.004692
  3 S  1.75840000E+03  0.012510
  3 S  7.66590000E+02  0.030038
  3 S  3.48430000E+02  0.059727
  3 S  1.64030000E+02  0.088470
  3 S  7.91420000E+01  0.036392
  3 S  3.55240000E+01 -0.223533
  3 S  1.73050000E+01 -0.512246
  3 S  8.37840000E+00 -0.108422
  3 S  3.74050000E+00  0.693637
  3 S  1.68900000E+00  0.555871
  3 S  2.55200000E-01 -0.011383

  4 S  9.56360000E+06 -0.000000
  4 S  1.43210000E+06 -0.000002
  4 S  3.25910000E+05 -0.000009
  4 S  9.23120000E+04 -0.000039
  4 S  3.01160000E+04 -0.000143
  4 S  1.08720000E+04 -0.000463
  4 S  4.24010000E+03 -0.001372
  4 S  1.75840000E+03 -0.003663
  4 S  7.66590000E+02 -0.008806
  4 S  3.48430000E+02 -0.017587
  4 S  1.64030000E+02 -0.026207
  4 S  7.91420000E+01 -0.010996
  4 S  3.55240000E+01  0.069570
  4 S  1.73050000E+01  0.168395
  4 S  8.37840000E+00  0.034616
  4 S  3.74050000E+00 -0.297870
  4 S  1.68900000E+00 -0.432257
  4 S  2.55200000E-01  0.675722

  5 S  5.09270000E-01  1.000000

  6 S  1.06510000E-01  1.000000

  7 S  3.92010000E-02  1.000000

  8 P  8.00430000E+03  0.000451
  8 P  1.89690000E+03  0.003905
  8 P  6.14710000E+02  0.021090
  8 P  2.33500000E+02  0.081292
  8 P  9.78560000E+01  0.221784
  8 P  4.35140000E+01  0.390727
  8 P  2.00630000E+01  0.355971
  8 P  9.11270000E+00  0.107327
  8 P  4.10630000E+00  0.003699
  8 P  1.79490000E+00  0.001803
  8 P  2.46150000E-01  0.000221

  9 P  8.00430000E+03 -0.000178
  9 P  1.89690000E+03 -0.001555
  9 P  6.14710000E+02 -0.008473
  9 P  2.33500000E+02 -0.033625
  9 P  9.78560000E+01 -0.095827
  9 P  4.35140000E+01 -0.181391
  9 P  2.00630000E+01 -0.150315
  9 P  9.11270000E+00  0.194826
  9 P  4.10630000E+00  0.541555
  9 P  1.79490000E+00  0.383730
  9 P  2.46150000E-01 -0.005013

 10 P  8.00430000E+03  0.000043
 10 P  1.89690000E+03  0.000377
 10 P  6.14710000E+02  0.002047
 10 P  2.33500000E+02  0.008190
 10 P  9.78560000E+01  0.023336
 10 P  4.35140000E+01  0.044981
 10 P  2.00630000E+01  0.035748
 10 P  9.11270000E+00 -0.058687
 10 P  4.10630000E+00 -0.170957
 10 P  1.79490000E+00 -0.129358
 10 P  2.46150000E-01  0.577807

 11 P  6.24320000E-01  1.000000

 12 P  8.89170000E-02  1.000000

 13 P  3.02510000E-02  1.000000

 14 D  3.61850000E+02  0.001566
 14 D  1.08550000E+02  0.013326
 14 D  4.14330000E+01  0.060153
 14 D  1.75790000E+01  0.174029
 14 D  7.86270000E+00  0.319569
 14 D  3.51800000E+00  0.381203
 14 D  1.53480000E+00  0.274609

 15 D  6.08130000E-01  1.000000

 16 D  2.22000000E-01  1.000000

 17 D  8.37000000E-02  1.000000

 18 F  4.62000000E-01  1.000000

 19 F  1.88000000E-01  1.000000



 Summary of "ao basis" -> "ao basis" (cartesian)
 ------------------------------------------------------------------------------
       Tag                 Description            Shells   Functions and Types
 ---------------- ------------------------------  ------  ---------------------
 Se                       aug-cc-pVTZ               19       69   7s6p4d2f




 Summary of "ao basis" -> "ao basis" (cartesian)
 ------------------------------------------------------------------------------
       Tag                 Description            Shells   Functions and Types
 ---------------- ------------------------------  ------  ---------------------
 Se                       aug-cc-pVTZ               19       69   7s6p4d2f




                         Geometry "geometry" -> "geometry"
                         ---------------------------------

 Output coordinates in angstroms (scale by  1.889725989 to convert to a.u.)

  No.       Tag          Charge          X              Y              Z
 ---- ---------------- ---------- -------------- -------------- --------------
    1 Se                  34.0000     0.00000000     0.00000000     0.00000000

      Atomic Mass 
      ----------- 

      Se                78.918300


 Effective nuclear repulsion energy (a.u.)       0.0000000000

            Nuclear Dipole moment (a.u.) 
            ----------------------------
        X                 Y               Z
 ---------------- ---------------- ----------------
     0.0000000000     0.0000000000     0.0000000000


                      Basis "ao basis" -> "ao basis" (cartesian)
                      -----
  Se (Selenium)
  -------------
            Exponent  Coefficients 
       -------------- ---------------------------------------------------------
  1 S  9.56360000E+06  0.772176
  1 S  1.43210000E+06  1.442775
  1 S  3.25910000E+05  2.502313
  1 S  9.23120000E+04  4.099428
  1 S  3.01160000E+04  6.419379
  1 S  1.08720000E+04  9.640195
  1 S  4.24010000E+03 13.749679
  1 S  1.75840000E+03 18.166111
  1 S  7.66590000E+02 20.949992
  1 S  3.48430000E+02 18.855665
  1 S  1.64030000E+02 10.578497
  1 S  7.91420000E+01  2.557408
  1 S  3.55240000E+01  0.121413
  1 S  1.73050000E+01 -0.002078
  1 S  8.37840000E+00  0.000584
  1 S  3.74050000E+00 -0.000228
  1 S  1.68900000E+00  0.000022
  1 S  2.55200000E-01  0.000002

  2 S  9.56360000E+06 -0.245124
  2 S  1.43210000E+06 -0.451400
  2 S  3.25910000E+05 -0.783517
  2 S  9.23120000E+04 -1.283253
  2 S  3.01160000E+04 -2.019782
  2 S  1.08720000E+04 -3.048593
  2 S  4.24010000E+03 -4.443961
  2 S  1.75840000E+03 -6.102492
  2 S  7.66590000E+02 -7.750087
  2 S  3.48430000E+02 -8.346352
  2 S  1.64030000E+02 -6.658563
  2 S  7.91420000E+01 -1.491465
  2 S  3.55240000E+01  3.988144
  2 S  1.73050000E+01  3.546554
  2 S  8.37840000E+00  0.692656
  2 S  3.74050000E+00  0.019188
  2 S  1.68900000E+00  0.001390
  2 S  2.55200000E-01  0.000028

  3 S  9.56360000E+06  0.100860
  3 S  1.43210000E+06  0.182093
  3 S  3.25910000E+05  0.316990
  3 S  9.23120000E+04  0.519084
  3 S  3.01160000E+04  0.818365
  3 S  1.08720000E+04  1.234890
  3 S  4.24010000E+03  1.807354
  3 S  1.75840000E+03  2.490296
  3 S  7.66590000E+02  3.208169
  3 S  3.48430000E+02  3.531185
  3 S  1.64030000E+02  2.972685
  3 S  7.91420000E+01  0.707903
  3 S  3.55240000E+01 -2.384489
  3 S  1.73050000E+01 -3.186177
  3 S  8.37840000E+00 -0.391428
  3 S  3.74050000E+00  1.367704
  3 S  1.68900000E+00  0.603752
  3 S  2.55200000E-01 -0.002996

  4 S  9.56360000E+06 -0.038438
  4 S  1.43210000E+06 -0.083276
  4 S  3.25910000E+05 -0.141767
  4 S  9.23120000E+04 -0.231413
  4 S  3.01160000E+04 -0.364833
  4 S  1.08720000E+04 -0.550554
  4 S  4.24010000E+03 -0.805782
  4 S  1.75840000E+03 -1.111526
  4 S  7.66590000E+02 -1.433752
  4 S  3.48430000E+02 -1.585036
  4 S  1.64030000E+02 -1.342408
  4 S  7.91420000E+01 -0.326080
  4 S  3.55240000E+01  1.131305
  4 S  1.73050000E+01  1.596707
  4 S  8.37840000E+00  0.190509
  4 S  3.74050000E+00 -0.895349
  4 S  1.68900000E+00 -0.715702
  4 S  2.55200000E-01  0.271142

  5 S  5.09270000E-01  0.429656

  6 S  1.06510000E-01  0.132878

  7 S  3.92010000E-02  0.062789

  8 P  8.00430000E+03 48.615810
  8 P  1.89690000E+03 69.677730
  8 P  6.14710000E+02 92.012116
  8 P  2.33500000E+02105.763289
  8 P  9.78560000E+01 97.295614
  8 P  4.35140000E+01 62.242670
  8 P  2.00630000E+01 21.544602
  8 P  9.11270000E+00  2.422128
  8 P  4.10630000E+00  0.030815
  8 P  1.79490000E+00  0.005340
  8 P  2.46150000E-01  0.000055

  9 P  8.00430000E+03-19.699618
  9 P  1.89690000E+03-28.415147
  9 P  6.14710000E+02-37.845299
  9 P  2.33500000E+02-44.788519
  9 P  9.78560000E+01-43.040085
  9 P  4.35140000E+01-29.583771
  9 P  2.00630000E+01 -9.314295
  9 P  9.11270000E+00  4.501515
  9 P  4.10630000E+00  4.619644
  9 P  1.79490000E+00  1.163398
  9 P  2.46150000E-01 -0.001268

 10 P  8.00430000E+03  7.845211
 10 P  1.89690000E+03 11.373101
 10 P  6.14710000E+02 15.094947
 10 P  2.33500000E+02 18.014375
 10 P  9.78560000E+01 17.307538
 10 P  4.35140000E+01 12.114354
 10 P  2.00630000E+01  3.657821
 10 P  9.11270000E+00 -2.239132
 10 P  4.10630000E+00 -2.408147
 10 P  1.79490000E+00 -0.647629
 10 P  2.46150000E-01  0.241415

 11 P  6.24320000E-01  0.791041

 12 P  8.89170000E-02  0.069210

 13 P  3.02510000E-02  0.017983

 14 D  3.61850000E+02 79.773276
 14 D  1.08550000E+02 82.572964
 14 D  4.14330000E+01 69.086094
 14 D  1.75790000E+01 44.580149
 14 D  7.86270000E+00 20.026012
 14 D  3.51800000E+00  5.847271
 14 D  1.53480000E+00  0.986471

 15 D  6.08130000E-01  0.689292

 16 D  2.22000000E-01  0.118175

 17 D  8.37000000E-02  0.021438

 18 F  4.62000000E-01  0.259059

 19 F  1.88000000E-01  0.034262



    Basis function labels
    ---------------------
       No.  Atm El Type
       ---  --- -- ----
        1    1 Se s          
        2    1 Se s          
        3    1 Se s          
        4    1 Se s          
        5    1 Se s          
        6    1 Se s          
        7    1 Se s          
        8    1 Se px         
        9    1 Se py         
       10    1 Se pz         
       11    1 Se px         
       12    1 Se py         
       13    1 Se pz         
       14    1 Se px         
       15    1 Se py         
       16    1 Se pz         
       17    1 Se px         
       18    1 Se py         
       19    1 Se pz         
       20    1 Se px         
       21    1 Se py         
       22    1 Se pz         
       23    1 Se px         
       24    1 Se py         
       25    1 Se pz         
       26    1 Se dxx        
       27    1 Se dxy        
       28    1 Se dxz        
       29    1 Se dyy        
       30    1 Se dyz        
       31    1 Se dzz        
       32    1 Se dxx        
       33    1 Se dxy        
       34    1 Se dxz        
       35    1 Se dyy        
       36    1 Se dyz        
       37    1 Se dzz        
       38    1 Se dxx        
       39    1 Se dxy        
       40    1 Se dxz        
       41    1 Se dyy        
       42    1 Se dyz        
       43    1 Se dzz        
       44    1 Se dxx        
       45    1 Se dxy        
       46    1 Se dxz        
       47    1 Se dyy        
       48    1 Se dyz        
       49    1 Se dzz        
       50    1 Se fxxx       
       51    1 Se fxxy       
       52    1 Se fxxz       
       53    1 Se fxyy       
       54    1 Se fxyz       
       55    1 Se fxzz       
       56    1 Se fyyy       
       57    1 Se fyyz       
       58    1 Se fyzz       
       59    1 Se fzzz       
       60    1 Se fxxx       
       61    1 Se fxxy       
       62    1 Se fxxz       
       63    1 Se fxyy       
       64    1 Se fxyz       
       65    1 Se fxzz       
       66    1 Se fyyy       
       67    1 Se fyyz       
       68    1 Se fyzz       
       69    1 Se fzzz       
  int_init: cando_txs set to always be  F

 Schwarz integral screening summary 
 ---------------------------------- 

        No. of atom pairs =       1
       No. of shell pairs =     190

 Atomic screening 

   value      no.     value      no.     value      no.     value      no.   
  -------- ------    -------- ------    -------- ------    -------- ------   
  0.00D+00      0    1.00D-13      0    1.00D-12      0    1.00D-11      0
  1.00D-10      0    1.00D-09      0    1.00D-08      0    1.00D-07      0
  1.00D-06      0    1.00D-05      0    1.00D-04      0    1.00D-03      0
  1.00D-02      0    1.00D-01      0    1.00D+00      0    1.00D+01      1


 Shell screening 

   value      no.     value      no.     value      no.     value      no.   
  -------- ------    -------- ------    -------- ------    -------- ------   
  0.00D+00      0    1.00D-13      0    1.00D-12      0    1.00D-11      0
  1.00D-10      0    1.00D-09      0    1.00D-08      0    1.00D-07      0
  1.00D-06      1    1.00D-05      2    1.00D-04      3    1.00D-03      7
  1.00D-02     18    1.00D-01     69    1.00D+00     88    1.00D+01      2


  Caching 1-el integrals 
  atom                     1  - neighbor  & S                     1   10.000000000000000       exp AB    3.0251000000000021E-002   3.0251000000000021E-002
 zmins =     0.030251000    0.030251000 lprod =   2 range =        20.12 acc   0.10D-07
 sh     0.000000000
  Center:                     1  Radial Pts. & Wghts. 
    1        0.000001200           5.1781542E-18
    2        0.000009596           1.3256119E-15
    3        0.000032388           3.3974293E-14
    4        0.000076772           3.3936576E-13
    5        0.000149946           2.0228367E-12
    6        0.000259109           8.6982069E-12
    7        0.000411462           2.9855922E-11
    8        0.000614207           8.6896290E-11
    9        0.000874547           2.2298035E-10
   10        0.001199692           5.1806342E-10
   11        0.001596854           1.1106912E-09
   12        0.002073249           2.2283554E-09
   13        0.002636102           4.2284282E-09
   14        0.003292644           7.6519186E-09
   15        0.004050114           1.3292527E-08
   16        0.004915764           2.2283711E-08
   17        0.005896854           3.6206725E-08
   18        0.007000660           5.7222840E-08
   19        0.008234472           8.8233240E-08
   20        0.009605598           1.3307033E-07
   21        0.011121364           1.9672456E-07
   22        0.012789116           2.8561104E-07
   23        0.014616224           4.0788072E-07
   24        0.016610085           5.7378116E-07
   25        0.018778122           7.9607224E-07
   26        0.021127787           1.0905027E-06
   27        0.023666569           1.4763537E-06
   28        0.026401990           1.9770560E-06
   29        0.029341611           2.6208883E-06
   30        0.032493036           3.4417639E-06
   31        0.035863912           4.4801147E-06
   32        0.039461936           5.7838803E-06
   33        0.043294856           7.4096139E-06
   34        0.047370477           9.4237121E-06
   35        0.051696660           1.1903784E-05
   36        0.056281332           1.4940167E-05
   37        0.061132485           1.8637606E-05
   38        0.066258185           2.3117109E-05
   39        0.071666571           2.8517990E-05
   40        0.077365865           3.5000128E-05
   41        0.083364372           4.2746440E-05
   42        0.089670488           5.1965607E-05
   43        0.096292706           6.2895063E-05
   44        0.103239618           7.5804269E-05
   45        0.110519924           9.0998305E-05
   46        0.118142433           1.0882180E-04
   47        0.126116078           1.2966321E-04
   48        0.134449912           1.5395956E-04
   49        0.143153122           1.8220152E-04
   50        0.152235033           2.1493903E-04
   51        0.161705115           2.5278745E-04
   52        0.171572992           2.9643416E-04
   53        0.181848448           3.4664591E-04
   54        0.192541436           4.0427673E-04
   55        0.203662089           4.7027656E-04
   56        0.215220725           5.4570076E-04
   57        0.227227857           6.3172032E-04
   58        0.239694205           7.2963314E-04
   59        0.252630706           8.4087624E-04
   60        0.266048522           9.6703910E-04
   61        0.279959054           1.1098782E-03
   62        0.294373951           1.2713330E-03
   63        0.309305125           1.4535429E-03
   64        0.324764765           1.6588665E-03
   65        0.340765343           1.8899023E-03
   66        0.357319640           2.1495106E-03
   67        0.374440748           2.4408388E-03
   68        0.392142097           2.7673475E-03
   69        0.410437465           3.1328407E-03
   70        0.429340997           3.5414971E-03
   71        0.448867223           3.9979057E-03
   72        0.469031078           4.5071041E-03
   73        0.489847924           5.0746204E-03
   74        0.511333565           5.7065194E-03
   75        0.533504278           6.4094534E-03
   76        0.556376833           7.1907170E-03
   77        0.579968516           8.0583085E-03
   78        0.604297160           9.0209966E-03
   79        0.629381172           1.0088394E-02
   80        0.655239564           1.1271037E-02
   81        0.681891980           1.2580476E-02
   82        0.709358739           1.4029373E-02
   83        0.737660861           1.5631609E-02
   84        0.766820114           1.7402405E-02
   85        0.796859049           1.9358449E-02
   86        0.827801047           2.1518048E-02
   87        0.859670364           2.3901284E-02
   88        0.892492178           2.6530194E-02
   89        0.926292648           2.9428967E-02
   90        0.961098965           3.2624163E-02
   91        0.996939414           3.6144961E-02
   92        1.033843441           4.0023422E-02
   93        1.071841718           4.4294797E-02
   94        1.110966224           4.8997862E-02
   95        1.151250319           5.4175290E-02
   96        1.192728833           5.9874077E-02
   97        1.235438160           6.6146006E-02
   98        1.279416356           7.3048173E-02
   99        1.324703250           8.0643583E-02
  100        1.371340555           8.9001808E-02
  101        1.419372004           9.8199736E-02
  102        1.468843479           1.0832241E-01
  103        1.519803162           1.1946399E-01
  104        1.572301700           1.3172882E-01
  105        1.626392377           1.4523262E-01
  106        1.682131308           1.6010394E-01
  107        1.739577647           1.7648564E-01
  108        1.798793819           1.9453677E-01
  109        1.859845766           2.1443455E-01
  110        1.922803227           2.3637675E-01
  111        1.987740036           2.6058437E-01
  112        2.054734458           2.8730469E-01
  113        2.123869555           3.1681487E-01
  114        2.195233591           3.4942605E-01
  115        2.268920480           3.8548808E-01
  116        2.345030288           4.2539505E-01
  117        2.423669786           4.6959173E-01
  118        2.504953067           5.1858107E-01
  119        2.589002237           5.7293298E-01
  120        2.675948193           6.3329468E-01
  121        2.765931487           7.0040288E-01
  122        2.859103311           7.7509819E-01
  123        2.955626599           8.5834224E-01
  124        3.055677288           9.5123815E-01
  125        3.159445739           1.0550549E+00
  126        3.267138369           1.1712568E+00
  127        3.378979510           1.3015390E+00
  128        3.495213555           1.4478706E+00
  129        3.616107426           1.6125473E+00
  130        3.741953442           1.7982559E+00
  131        3.873072648           2.0081539E+00
  132        4.009818716           2.2459688E+00
  133        4.152582526           2.5161209E+00
  134        4.301797589           2.8238798E+00
  135        4.457946476           3.1755608E+00
  136        4.621568532           3.5787771E+00
  137        4.793269143           4.0427650E+00
  138        4.973730993           4.5788061E+00
  139        5.163727817           5.2007830E+00
  140        5.364141352           5.9259175E+00
  141        5.575982439           6.7757622E+00
  142        5.800417528           7.7775524E+00
  143        6.038802365           8.9660728E+00
  144        6.292725316           1.0386277E+01
  145        6.564063835           1.2097026E+01
  146        6.855059191           1.4176536E+01
  147        7.168417002           1.6730472E+01
  148        7.507445108           1.9904293E+01
  149        7.876246724           2.3902599E+01
  150        8.279997848           2.9020433E+01
  151        8.725357268           3.5695865E+01
  152        9.221093309           4.4602234E+01
  153        9.779081306           5.6818687E+01
  154       10.415970622           7.4166155E+01
  155       11.156145435           9.9923948E+01
  156       12.037409439           1.4052260E+02
  157       13.123094834           2.1013102E+02
  158       14.531927838           3.4578064E+02
  159       16.530453345           6.7543510E+02
  160       19.969194998           1.9838328E+03
     irreducible set of Lebedev Angular points ;
  0.009523809523810  1.000000000000000  0.000000000000000  0.000000000000000
  0.032142857142857  0.577350269189626  0.577350269189626  0.577350269189626
  0.028571428571429  0.459700843380983  0.000000000000000  0.888073833977115
   total no. of   reducible points:  38; test:  1.00000000
  0.012698412698413  1.000000000000000  0.000000000000000  0.000000000000000
  0.022574955908289  0.707106781186547  0.707106781186547  0.000000000000000
  0.021093750000000  0.577350269189626  0.577350269189626  0.577350269189626
  0.020173335537919  0.301511344577764  0.301511344577764  0.904534033733291
   total no. of   reducible points:  50; test:  1.00000000
  0.000513067179734  1.000000000000000  0.000000000000000  0.000000000000000
  0.016604069565742  0.707106781186547  0.707106781186547  0.000000000000000
 -0.029586038961039  0.577350269189626  0.577350269189626  0.577350269189626
  0.026576207082159  0.480384461415261  0.480384461415261  0.733799385705343
  0.016522170993716  0.320772648980776  0.000000000000000  0.947156221362588
   total no. of   reducible points:  74; test:  1.00000000
  0.011544011544012  1.000000000000000  0.000000000000000  0.000000000000000
  0.011943909085856  0.577350269189626  0.577350269189626  0.577350269189626
  0.011110555710603  0.369602846454150  0.369602846454150  0.852518311701268
  0.011876501294537  0.694354006602666  0.694354006602666  0.189063552885395
  0.011812303746904  0.374243039090341  0.000000000000000  0.927330657151172
   total no. of   reducible points:  86; test:  1.00000000
  0.003828270494937  1.000000000000000  0.000000000000000  0.000000000000000
  0.009793737512488  0.577350269189626  0.577350269189626  0.577350269189626
  0.008211737283191  0.185115635344736  0.185115635344736  0.965124035086594
  0.009942814891178  0.690421048382292  0.690421048382292  0.215957291845848
  0.009595471336071  0.395689473055942  0.395689473055942  0.828769981252592
  0.009694996361663  0.478369028812150  0.000000000000000  0.878158910604066
   total no. of   reducible points: 110; test:  1.00000000
  0.000599631368862  1.000000000000000  0.000000000000000  0.000000000000000
  0.007372999718621  0.707106781186547  0.707106781186547  0.000000000000000
  0.007210515360144  0.577350269189626  0.577350269189626  0.577350269189626
  0.007116355493118  0.676441040011426  0.676441040011426  0.291298882209527
  0.006753829486314  0.417496122796545  0.417496122796545  0.807089818359583
  0.007574394159054  0.157467667203908  0.157467667203908  0.974888643677173
  0.006991087353303  0.140355381171318  0.449332832326956  0.882270011260323
   total no. of   reducible points: 146; test:  1.00000000
  0.005544842902037  1.000000000000000  0.000000000000000  0.000000000000000
  0.006071332770671  0.707106781186547  0.707106781186547  0.000000000000000
  0.006383674773515  0.577350269189626  0.577350269189626  0.577350269189626
  0.005183387587748  0.255125262111413  0.255125262111413  0.932642590312691
  0.006317929009814  0.674360146036277  0.674360146036277  0.300793595137701
  0.006201670006589  0.431891069671941  0.431891069671941  0.791795559393492
  0.005477143385137  0.261393136033599  0.000000000000000  0.965232421976448
  0.005968383987681  0.499045316179604  0.144663074432512  0.854415804684659
   total no. of   reducible points: 170; test:  1.00000000
  0.001782340447245  1.000000000000000  0.000000000000000  0.000000000000000
  0.005716905949977  0.707106781186547  0.707106781186547  0.000000000000000
  0.005573383178849  0.577350269189626  0.577350269189626  0.577350269189626
  0.005608704082588  0.671297344269523  0.671297344269523  0.314196994182586
  0.005158237711805  0.289246562757544  0.289246562757544  0.912509096867474
  0.005518771467274  0.444693317871744  0.444693317871744  0.777493219314767
  0.004106777028169  0.129933544765007  0.129933544765007  0.982972302707253
  0.005051846064615  0.345770219761128  0.000000000000000  0.938319218137592
  0.005530248916233  0.159041710538353  0.836036015482459  0.525118572443642
   total no. of   reducible points: 194; test:  1.00000000
 -0.055226399197273  1.000000000000000  0.000000000000000  0.000000000000000
  0.004450274607445  0.577350269189626  0.577350269189626  0.577350269189626
  0.004496841067921  0.449204468739761  0.449204468739761  0.772289253148364
  0.005049153450479  0.252041949021020  0.252041949021020  0.934317778845812
  0.003976408018052  0.698190665844724  0.698190665844724  0.158302205463478
  0.004401400650381  0.658740524346096  0.658740524346096  0.363485684956727
  0.017245443505444  0.040385440500977  0.040385440500977  0.998367683967727
  0.004231083095357  0.582384230971558  0.000000000000000  0.812913653173365
  0.005198069864064  0.354587739051869  0.000000000000000  0.935022745880593
  0.004695720972569  0.227218180899819  0.486466153588665  0.843636521068894
   total no. of   reducible points: 230; test:  1.00000000
 -0.001313769127327  1.000000000000000  0.000000000000000  0.000000000000000
 -0.002522728704859  0.707106781186547  0.707106781186547  0.000000000000000
  0.004186853881701  0.577350269189626  0.577350269189626  0.577350269189626
  0.005315167977811  0.703937339158548  0.703937339158548  0.094575076403713
  0.004047142377086  0.101252624857241  0.101252624857241  0.989694807462905
  0.004112482394407  0.464744872642054  0.464744872642054  0.753673939250816
  0.003595584899759  0.327742065497163  0.327742065497163  0.886098344997499
  0.004256131351428  0.662033866369997  0.662033866369997  0.351315128564633
  0.004229582700647  0.850650808352040  0.000000000000000  0.525731112119134
  0.004080914225781  0.323348454269290  0.115311201100970  0.939227929749916
  0.004071467593831  0.231479015871260  0.524493924092236  0.819343388819120
   total no. of   reducible points: 266; test:  1.00000000
  0.000854591172513  1.000000000000000  0.000000000000000  0.000000000000000
  0.003599119285026  0.577350269189626  0.577350269189626  0.577350269189626
  0.003449788424306  0.351564034557011  0.351564034557011  0.867643624544083
  0.003604822601420  0.656632941021961  0.656632941021961  0.371034178384821
  0.003576729661743  0.472905413258100  0.472905413258100  0.743452042987556
  0.002352101413689  0.096183085226148  0.096183085226148  0.990705621379408
  0.003108953122414  0.221964523629418  0.221964523629418  0.949454317226443
  0.003650045807677  0.701176641608955  0.701176641608955  0.129238672710514
  0.002982344963172  0.264415288706066  0.000000000000000  0.964408914879206
  0.003600820932216  0.571895589187896  0.000000000000000  0.820326419827759
  0.003571540554273  0.251003475177047  0.800072749407395  0.544867737258077
  0.003392312205006  0.123354853258333  0.412772408316853  0.902442529533000
   total no. of   reducible points: 302; test:  1.00000000
  0.003006796749454  1.000000000000000  0.000000000000000  0.000000000000000
  0.003050627745651  0.577350269189626  0.577350269189626  0.577350269189626
  0.001621104600289  0.706896546391232  0.706896546391232  0.024383301669356
  0.003005701484902  0.479468262571203  0.479468262571203  0.734996850587746
  0.002990992529654  0.192753315487802  0.192753315487802  0.962129055136014
  0.002982170644108  0.693035796132712  0.693035796132712  0.198501311223365
  0.002721564237311  0.360830211552009  0.360830211552009  0.860001812127547
  0.003033513795811  0.649848616149617  0.649848616149617  0.394199888605839
  0.003007949555219  0.193294501323034  0.000000000000000  0.981140782843257
  0.002881964603055  0.380049491989930  0.000000000000000  0.924966152698679
  0.002958357626536  0.289955882549957  0.793453785658232  0.535123047718276
  0.003036020026407  0.096841214551040  0.828080150668686  0.552182074349399
  0.002832187403926  0.183343464704166  0.907465826530513  0.378009189874487
   total no. of   reducible points: 350; test:  1.00000000
  0.000526589796822  1.000000000000000  0.000000000000000  0.000000000000000
  0.002548219972003  0.707106781186547  0.707106781186547  0.000000000000000
  0.002512317418927  0.577350269189626  0.577350269189626  0.577350269189626
  0.002530403801186  0.690934630750911  0.690934630750911  0.212646824707552
  0.002014279020919  0.177483605460916  0.177483605460916  0.967987158791473
  0.002501725168403  0.491434263778475  0.491434263778475  0.719016501040843
  0.002513267174598  0.645666470742426  0.645666470742426  0.407712664897770
  0.002302694782227  0.286128901030764  0.286128901030764  0.914472801120872
  0.001462495621595  0.075680843671780  0.075680843671780  0.994255912631278
  0.002445373437313  0.392725976336800  0.392725976336800  0.831584400419232
  0.002417442375639  0.881813287779429  0.000000000000000  0.471598691151316
  0.001910951282180  0.977642811118265  0.000000000000000  0.210272522857307
  0.002416930044325  0.205482369640304  0.868946032287241  0.450233038258263
  0.002512236854563  0.590515704892527  0.799927854385729  0.106801826075805
  0.002496644054553  0.555015236107681  0.771746262691590  0.310428403516654
  0.002236607760438  0.937180985855372  0.334436314534346  0.099217696364292
   total no. of   reducible points: 434; test:  1.00000000
  0.000309512129531  1.000000000000000  0.000000000000000  0.000000000000000
  0.001852379698597  0.577350269189626  0.577350269189626  0.577350269189626
  0.001871790639278  0.704095493822747  0.704095493822747  0.092190407076898
  0.001858812585438  0.680774406645524  0.680774406645524  0.270356088359165
  0.001852028828296  0.637254693925875  0.637254693925875  0.433373868777154
  0.001846715956151  0.504441970780036  0.504441970780036  0.700768575373573
  0.001818471778163  0.421576178401097  0.421576178401097  0.802836877335274
  0.001749564657281  0.331792073647212  0.331792073647212  0.883078727934133
  0.001617210647254  0.238473670142189  0.238473670142189  0.941414158220403
  0.001384737234852  0.145903644915776  0.145903644915776  0.978480583762694
  0.000976433116505  0.060950341155072  0.060950341155072  0.996278129754016
  0.001857161196774  0.611684344200988  0.000000000000000  0.791101929626902
  0.001705153996396  0.396475534819986  0.000000000000000  0.918045287711454
  0.001300321685886  0.172478200990772  0.000000000000000  0.985013335028002
  0.001842866472905  0.561026380862206  0.351828092773352  0.749310611904116
  0.001802658934377  0.474239284255198  0.263471665593795  0.840047488359050
  0.001849830560444  0.598412649788538  0.181664084036021  0.780320742479920
  0.001713904507107  0.379103540769556  0.172079522565688  0.909213475092374
  0.001555213603397  0.277867319058624  0.082130215819325  0.957102074310073
  0.001802239128009  0.503356427107512  0.089992058420749  0.859379855890721
   total no. of   reducible points: 590; test:  1.00000000
  0.000219294208818  1.000000000000000  0.000000000000000  0.000000000000000
  0.001436433617319  0.707106781186547  0.707106781186547  0.000000000000000
  0.001421940344336  0.577350269189626  0.577350269189626  0.577350269189626
  0.000679812351105  0.050872044105024  0.050872044105024  0.997408677652823
  0.000991318423529  0.122819879017883  0.122819879017883  0.984799753572301
  0.001180207833239  0.202689081440879  0.202689081440879  0.958036675983391
  0.001296599602081  0.284774515646429  0.284774515646429  0.915317950483155
  0.001365871427428  0.365671907897803  0.365671907897803  0.855901928697887
  0.001402988604775  0.442826488671347  0.442826488671347  0.779621319527635
  0.001418645563596  0.514061962724974  0.514061962724974  0.686644447264154
  0.001421376741852  0.630640121916680  0.630640121916680  0.452311920313658
  0.001423996475491  0.671688333202261  0.671688333202261  0.312521305001653
  0.001431554042179  0.697979268533688  0.697979268533688  0.160155803498829
  0.000925440149987  0.144686567419531  0.000000000000000  0.989477537495599
  0.001250239995054  0.339026347541122  0.000000000000000  0.940776878793759
  0.001394365843329  0.533580465126351  0.000000000000000  0.845749305193653
  0.001127089094672  0.069440243933494  0.235518789424233  0.969385863498432
  0.001345753760911  0.226900410952946  0.410218247404573  0.883310360522113
  0.001424957283317  0.080255746077753  0.621430241748161  0.779348105702661
  0.001261523341238  0.146799952789657  0.324528434571739  0.934414827052402
  0.001392547106053  0.157150776982473  0.522448218969663  0.838064133458312
  0.001418761677878  0.236570299315725  0.601754663408956  0.762840624604670
  0.001338366684480  0.077148158667657  0.434657551614116  0.897285336132833
  0.001393700862676  0.306293666621073  0.490882658903762  0.815609223203975
  0.001415914757467  0.382247737952479  0.564876814909950  0.731300793659766
   total no. of   reducible points: 770; test:  1.00000000
  0.000143829419053  1.000000000000000  0.000000000000000  0.000000000000000
  0.001125772288287  0.577350269189626  0.577350269189626  0.577350269189626
  0.000494802934195  0.042929635453413  0.042929635453413  0.998155345023847
  0.000735799010913  0.105142685408640  0.105142685408640  0.988883224354686
  0.000888913277130  0.175002486762309  0.175002486762309  0.968890220434707
  0.000988834783892  0.247765337965026  0.247765337965026  0.936602730407163
  0.001053299681709  0.320656712395596  0.320656712395596  0.891267942647606
  0.001092778807015  0.391652074984998  0.391652074984998  0.832596723702352
  0.001114389394063  0.459082587418762  0.459082587418762  0.760582905315251
  0.001123724788052  0.521456388841586  0.521456388841586  0.675400969108414
  0.001125239325244  0.625317024465420  0.625317024465420  0.466858905695743
  0.001126153271816  0.663792674452317  0.663792674452317  0.344613654237438
  0.001130286931124  0.691041039849830  0.691041039849830  0.211954151850184
  0.001134986534364  0.705290700745776  0.705290700745776  0.071624401449956
  0.000682336792711  0.123668676265799  0.000000000000000  0.992323565431490
  0.000945415816045  0.294077711446839  0.000000000000000  0.955781512496548
  0.001074429975386  0.469775384920765  0.000000000000000  0.882785980701182
  0.001129300086569  0.633456324113957  0.000000000000000  0.773778447257375
  0.000843688450090  0.059740486141813  0.202912875277752  0.977372722845310
  0.001075255720449  0.137576040847364  0.460262194248405  0.877058461865803
  0.001108577236864  0.339101652633629  0.503067399966204  0.794942299964208
  0.000956647532378  0.127167519143982  0.281760642244213  0.951020169374390
  0.001080663250717  0.269312074041351  0.433156129172016  0.860143461601762
  0.001126797131196  0.141978645260192  0.625616735858081  0.767102186220558
  0.001022568715358  0.067092846007383  0.379839521685916  0.922616110730809
  0.001108960267713  0.070577381832562  0.551750542142352  0.831017552413474
  0.001122790653436  0.278388847788215  0.602961915615919  0.747620610834086
  0.001032401847117  0.197957893891741  0.358960632958910  0.912118378409121
  0.001107249382284  0.208730706110327  0.534866643813548  0.818748536281022
  0.001121780048520  0.405512213787284  0.567499754607437  0.716591845467024
   total no. of   reducible points: 974; test:  1.00000000
  0.000110518923327  1.000000000000000  0.000000000000000  0.000000000000000
  0.000920523273809  0.707106781186547  0.707106781186547  0.000000000000000
  0.000913315978644  0.577350269189626  0.577350269189626  0.577350269189626
  0.000369042189802  0.037126364496571  0.037126364496571  0.998620681799919
  0.000560399092868  0.091400604122622  0.091400604122622  0.991610739722014
  0.000686529762928  0.153107785246991  0.153107785246991  0.976276606394685
  0.000772033855115  0.218092889166061  0.218092889166061  0.951247067480579
  0.000830154595889  0.283987453220018  0.283987453220018  0.915806886208668
  0.000868669255018  0.349117760096376  0.349117760096376  0.869616915181954
  0.000892707628585  0.412143146144431  0.412143146144431  0.812573722299916
  0.000906082023857  0.471899362714913  0.471899362714913  0.744729469632107
  0.000911977725494  0.527314545284234  0.527314545284234  0.666242253736104
  0.000912872013860  0.620947533244402  0.620947533244402  0.478380938076952
  0.000913071493569  0.656972271185729  0.656972271185729  0.369830866459426
  0.000915287378455  0.684178830907014  0.684178830907014  0.252583955700718
  0.000918743627432  0.701260433012363  0.701260433012363  0.128326186659723
  0.000517697731297  0.107238221547817  0.000000000000000  0.994233354821322
  0.000733114368210  0.258206895949697  0.000000000000000  0.966089643296119
  0.000846323283638  0.417275295530672  0.000000000000000  0.908780131681911
  0.000903112269425  0.570036691179250  0.000000000000000  0.821619237061433
  0.000648577845316  0.982798601826395  0.177177402261533  0.052106394770113
  0.000743503091098  0.962424923032623  0.247571646342629  0.111564095715648
  0.000799852789184  0.940200799412881  0.335461628906649  0.059058888532354
  0.000810173149747  0.932082204014320  0.317361524661198  0.174655167757863
  0.000848338957459  0.904367419939330  0.409026842708536  0.121723505109599
  0.000855629925731  0.891240756007475  0.385429115066922  0.239027847938172
  0.000880320867974  0.867643562846271  0.493222118485128  0.062662506241542
  0.000881104818243  0.858197998604162  0.478532067592243  0.185750519454734
  0.000885028234127  0.839675362404986  0.450742259315706  0.302946697352898
  0.000902134229904  0.816528856402219  0.563212302076210  0.126777480068428
  0.000901009167711  0.801546937078353  0.543430356969390  0.249411216236224
  0.000902269293843  0.777356306907035  0.512351848641987  0.364983226059765
  0.000915801617469  0.766162121390039  0.639427963474910  0.064245492242208
  0.000913157800319  0.755358414353351  0.626980550902439  0.190601822277923
  0.000910781357948  0.734430575755950  0.603116169309631  0.311227594714961
  0.000910576025897  0.704383718402177  0.569370249846844  0.423864478152234
   total no. of   reducible points:1202; test:  1.00000000
  0.000077771607433  1.000000000000000  0.000000000000000  0.000000000000000
  0.000755764641300  0.577350269189626  0.577350269189626  0.577350269189626
  0.000284163380609  0.032292906634139  0.032292906634139  0.998956623864238
  0.000437441912705  0.080367332714622  0.080367332714622  0.993520097262594
  0.000541717474087  0.135428996053165  0.135428996053165  0.981487633165117
  0.000614800089136  0.193896386111443  0.193896386111443  0.961669580940275
  0.000666439448580  0.253734371501127  0.253734371501127  0.933401166400522
  0.000702503935692  0.313525143475257  0.313525143475257  0.896328047546008
  0.000726851178925  0.372155833937534  0.372155833937534  0.850294108254619
  0.000742263753421  0.428680957519570  0.428680957519570  0.795276853253136
  0.000750954503584  0.482251012828299  0.482251012828299  0.731346649169981
  0.000754853505772  0.532067933356626  0.532067933356626  0.658640591360127
  0.000755408896977  0.617299819539427  0.617299819539427  0.487731345715221
  0.000755314717444  0.651067984912748  0.651067984912748  0.390155043595885
  0.000756476765329  0.677731525168736  0.677731525168736  0.285236672931301
  0.000758799180852  0.696310941064874  0.696310941064874  0.174075117999957
  0.000760826183203  0.705893500983175  0.705893500983175  0.058555363028785
  0.000402168044787  0.995554619409186  0.000000000000000  0.094185985013862
  0.000580487179395  0.973411590179421  0.000000000000000  0.229063039585986
  0.000679215195595  0.927569373238863  0.000000000000000  0.373650983980055
  0.000733674121129  0.856802242279510  0.000000000000000  0.515645147000147
  0.000758186630099  0.762349555371937  0.000000000000000  0.647165477620840
  0.000753825785980  0.570752290889222  0.438702803988950  0.694104943230444
  0.000748351724705  0.519646338840308  0.385890841476262  0.762270254565011
  0.000737176366111  0.464633753121535  0.330193737234385  0.821637128756598
  0.000718344889576  0.406390169755769  0.272542357356378  0.872105322408083
  0.000689581552982  0.345632946664309  0.213951023749525  0.913653558859526
  0.000648010580179  0.283139512105033  0.155592230978665  0.946373644151191
  0.000589755889659  0.219768202292533  0.098928789796861  0.970523071240677
  0.000509570884925  0.156469609865035  0.045986429106755  0.986611630545015
  0.000753690642891  0.602735667372129  0.337662514017343  0.722975616397235
  0.000747250596558  0.549603232025510  0.282230130972799  0.786309379645309
  0.000734301713228  0.492170775523457  0.224863234259254  0.840954489612314
  0.000713087158218  0.430942299859848  0.166622472345648  0.886862833757808
  0.000681702203211  0.366410818231367  0.108696490182217  0.924082347686118
  0.000638094114560  0.299018905775844  0.052519897841201  0.952800794667682
  0.000755038137792  0.626872401314500  0.229752365755002  0.744476220506856
  0.000747864664014  0.570732414483461  0.172308060709380  0.802853936449496
  0.000733591872060  0.509636090196037  0.114023846539051  0.852801042441985
  0.000711012052766  0.443872993831246  0.056115220958825  0.894330949550573
  0.000757136397869  0.641997847108239  0.116417442314087  0.757816431224233
  0.000748990832908  0.581721806180261  0.057975895314452  0.811319009870262
   total no. of   reducible points:1454; test:  1.00000000
  qrot: 

              1        2        3      
    1    1.0000   0.0000   0.0000
    2    0.0000   1.0000   0.0000
    3    0.0000   0.0000   1.0000
  me                     0   done genpts
  me                     1   done genpts
  me                     3   done genpts
  me                     4   done genpts
  me                     5   done genpts
  me                     6   done genpts
  me                     7   done genpts
  me                     2   done genpts
  me                     0   done uprt
  me                     1   done uprt
  me                     2   done uprt
  me                     3   done uprt
  me                     4   done uprt
  me                     5   done uprt
  me                     6   done uprt
  me                     7   done uprt
  me                     0  done mem
  me                     1  done mem
  me                     2  done mem
  me                     3  done mem
  me                     4  done mem
  me                     5  done mem
  me                     6  done mem
  me                     7  done mem
  dftinpanae: itol2e                     8  iaoacc                    14  tol_rho    1.0000000000000000E-010

            General Information
            -------------------
          SCF calculation type: DFT
          Wavefunction type:  spin polarized.
          No. of atoms     :     1
          No. of electrons :    34
           Alpha electrons :    18
            Beta electrons :    16
          Charge           :     0
          Spin multiplicity:     3
          Use of symmetry is: off; symmetry adaption is: off
          Maximum number of iterations:  50
          AO basis - number of functions:    69
                     number of shells:    19
          Convergence on energy requested:  1.00D-06
          Convergence on density requested:  1.00D-05
          Convergence on gradient requested:  5.00D-04

              XC Information
              --------------
                     Hartree-Fock (Exact) Exchange  1.000          
                     LC-wPBE(h)Exchange Functional  1.000          
            Perdew 1991 LDA Correlation Functional  1.000 local    
           PerdewBurkeErnz. Correlation Functional  1.000 non-local

           Range-Separation Parameters        
           ---------------------------
           Alpha           :  0.00
           Beta            :  1.00
           Gamma           :  0.40
           Short-Range HF  :     F

             Grid Information
             ----------------
          Grid used for XC integration:  xfine     
          Radial quadrature: Mura-Knowles        
          Angular quadrature: Lebedev. 
          Tag              B.-S. Rad. Rad. Pts. Rad. Cut. Ang. Pts.
          ---              ---------- --------- --------- ---------
          Se                  1.15      160          11.0      1454
          Grid pruning is: on 
          Number of quadrature shells:   160
          Spatial weights used:  Erf1

          Convergence Information
          -----------------------
          Convergence aids based upon iterative change in 
          total energy or number of iterations. 
          Levelshifting, if invoked, occurs when the 
          HOMO/LUMO gap drops below (HL_TOL):  1.00D-02
          DIIS, if invoked, will attempt to extrapolate 
          using up to (NFOCK): 10 stored Fock matrices.

                    Damping( 0%)  Levelshifting(0.5)       DIIS
                  --------------- ------------------- ---------------
          dE  on:    start            ASAP                start   
          dE off:    2 iters         50 iters            50 iters 


      Screening Tolerance Information
      -------------------------------
          Density screening/tol_rho:  1.00D-10
          AO Gaussian exp screening on grid/accAOfunc:  14
          CD Gaussian exp screening on grid/accCDfunc:  20
          XC Gaussian exp screening on grid/accXCfunc:  20
          Schwarz screening/accCoul:  1.00D-08



                         Geometry "geometry" -> "geometry"
                         ---------------------------------

 Output coordinates in angstroms (scale by  1.889725989 to convert to a.u.)

  No.       Tag          Charge          X              Y              Z
 ---- ---------------- ---------- -------------- -------------- --------------
    1 Se                  34.0000     0.00000000     0.00000000     0.00000000

      Atomic Mass 
      ----------- 

      Se                78.918300


 Effective nuclear repulsion energy (a.u.)       0.0000000000

            Nuclear Dipole moment (a.u.) 
            ----------------------------
        X                 Y               Z
 ---------------- ---------------- ----------------
     0.0000000000     0.0000000000     0.0000000000

  
  CAM type calculations without CDFIT are
  only available with the direct option.
  Forcing Direct SCF
  


     <<<<<<    Before call to DFT_SCF.    >>>>>>
     <<<<<< date:  Apr 24  time: 11:22:42 >>>>>>


 Setting tolerance for linear dependence to 1.00D-05



 Setting tolerance for linear dependence to 1.00D-05

 Setting tolerance for linear dependence to 1.00D-05

 Setting tolerance for linear dependence to 1.00D-05

 Setting tolerance for linear dependence to 1.00D-05

 Setting tolerance for linear dependence to 1.00D-05
 Setting tolerance for linear dependence to 1.00D-05
 Setting tolerance for linear dependence to 1.00D-05
  lindep tolerance =    1.0000000000000001E-005
  lindep tolerance =    1.0000000000000001E-005
  lindep tolerance =    1.0000000000000001E-005
  lindep tolerance =    1.0000000000000001E-005
  lindep tolerance =    1.0000000000000001E-005
  lindep tolerance =    1.0000000000000001E-005
  lindep tolerance =    1.0000000000000001E-005
  lindep tolerance =    1.0000000000000001E-005


     <<<<<<    Before 3c-2e initialize.   >>>>>>
     <<<<<< date:  Apr 24  time: 11:22:42 >>>>>>


 Setting fock-build task_bf   :      -1
                    maxquartet:   10000
                    maxeri    :  129600
                    maxscr    :       0
                    intacc    : 0.0D+00
                    denscreen : T
                    dentol    : 1.0D-06


      Superposition of Atomic Density Guess
      -------------------------------------

 Sum of atomic energies:       -2399.85141671

      Non-variational initial energy
      ------------------------------

 Total energy =   -2399.589155
 1-e energy   =   -3343.354635
 2-e energy   =     943.765480
 HOMO         =      -0.267156
 LUMO         =      -0.267156


 Setting fock-build task_bf   :      -1
                    maxquartet:   10000
                    maxeri    :  129600
                    maxscr    :       0
                    intacc    : 0.0D+00
                    denscreen : T
                    dentol    : 1.0D-06


 Wrote molecular orbitals to ./se.movecs

  WARNING: movecs_in_org=atomic not equal to movecs_in=./se.movecs
   Time after variat. SCF:      7.5

 Setting fock-build task_bf   :      -1
                    maxquartet:   10000
                    maxeri    :  129600
                    maxscr    :       0
                    intacc    : 0.0D+00
                    denscreen : T
                    dentol    : 1.0D-06

   Time prior to 1st pass:      7.5


     <<<<<<      Before SCF iter loop.    >>>>>>
     <<<<<< date:  Apr 24  time: 11:22:49 >>>>>>

           DAMPING=T LEVELSHIFTING=F DIISING=T
          itol2e= 8 iAOacc=12 iXCacc=20


     <<<<<<            calling 1-e int    >>>>>>
     <<<<<< date:  Apr 24  time: 11:22:49 >>>>>>

    Kinetic Matrix Time:          0.0s

           Kinetic energy =   2399.264894125166

    Potential Matrix Time:          0.0s


     <<<<<<    Before call to GETVXC.     >>>>>>
     <<<<<< date:  Apr 24  time: 11:22:49 >>>>>>



     <<<<<<    Before call to fock_2e.    >>>>>>
     <<<<<< date:  Apr 24  time: 11:22:49 >>>>>>



     <<<<<<     After call to fock_2e.    >>>>>>
     <<<<<< date:  Apr 24  time: 11:22:51 >>>>>>

    Fock_2e Build Time:          1.9s
  *** grid_quadv0:                    calc_type:                    1
  *** grid_quadv0:                    grid_written: F
  *** grid_quadv0:                    grad: T
  *** grid_quadv0:                    kske: F
  *** grid_quadv0:                    kslap: F
  *** grid_quadv0:                    do_scf: T
  *** grid_quadv0:                    fde_option:                    0
  *** grid_quadv0:                    n_per_rec:                 3070
  *** grid_quadv0:                    calc_type:                    1
  *** grid_quadv0:                    grid_written: F
  *** grid_quadv0:                    grad: T
  *** grid_quadv0:                    kske: F
  *** grid_quadv0:                    kslap: F
  *** grid_quadv0:                    do_scf: T
  *** grid_quadv0:                    fde_option:                    0
  *** grid_quadv0:                    n_per_rec:                 3070
  *** grid_quadv0:                    calc_type:                    1
  *** grid_quadv0:                    grid_written: F
  *** grid_quadv0:                    grad: T
  *** grid_quadv0:                    kske: F
  *** grid_quadv0:                    kslap: F
  *** grid_quadv0:                    do_scf: T
  *** grid_quadv0:                    fde_option:                    0
  *** grid_quadv0:                    n_per_rec:                 3070
  *** grid_quadv0:                    calc_type:                    1
  *** grid_quadv0:                    grid_written: F
  *** grid_quadv0:                    grad: T
  *** grid_quadv0:                    kske: F
  *** grid_quadv0:                    kslap: F
  *** grid_quadv0:                    do_scf: T
  *** grid_quadv0:                    fde_option:                    0
  *** grid_quadv0:                    n_per_rec:                 3070
  *** grid_quadv0:                    calc_type:                    1
  *** grid_quadv0:                    grid_written: F
  *** grid_quadv0:                    grad: T
  *** grid_quadv0:                    kske: F
  *** grid_quadv0:                    kslap: F
  *** grid_quadv0:                    do_scf: T
  *** grid_quadv0:                    fde_option:                    0
  *** grid_quadv0:                    n_per_rec:                 3070
  *** grid_quadv0:                    calc_type:                    1
  *** grid_quadv0:                    grid_written: F
  *** grid_quadv0:                    grad: T
  *** grid_quadv0:                    kske: F
  *** grid_quadv0:                    kslap: F
  *** grid_quadv0:                    do_scf: T
  *** grid_quadv0:                    fde_option:                    0
  *** grid_quadv0:                    n_per_rec:                 3070
  *** grid_quadv0:                    calc_type:                    1
  *** grid_quadv0:                    grid_written: F
  *** grid_quadv0:                    grad: T
  *** grid_quadv0:                    kske: F
  *** grid_quadv0:                    kslap: F
  *** grid_quadv0:                    do_scf: T
  *** grid_quadv0:                    fde_option:                    0
  *** grid_quadv0:                    n_per_rec:                 3070
  *** grid_quadv0:                    calc_type:                    1
  *** grid_quadv0:                    grid_written: F
  *** grid_quadv0:                    grad: T
  *** grid_quadv0:                    kske: F
  *** grid_quadv0:                    kslap: F
  *** grid_quadv0:                    do_scf: T
  *** grid_quadv0:                    fde_option:                    0
  *** grid_quadv0:                    n_per_rec:                 3070
   0: nuse=   8 avail= 12500000Mb on .
   1: nuse=   8 avail= 12500000Mb on .
   2: nuse=   8 avail= 12500000Mb on .
   3: nuse=   8 avail= 12500000Mb on .
   4: nuse=   8 avail= 12500000Mb on .
   5: nuse=   8 avail= 12500000Mb on .
   6: nuse=   8 avail= 12500000Mb on .
   7: nuse=   8 avail= 12500000Mb on .
 l_cube input   11.00

  atom type   l_cube   no. cubes   segmts   rad   sub
 ----------- -------- ----------- -------- ----- -----
        1     13.33        34         3      20     8

 Grid_pts file          = ./se.gridpts.0
 Record size in doubles =  12289        No. of grid_pts per rec  =   3070
 Max. records in memory =     12        Max. recs in file   = 126656358

 me   0 NQTOTC NQ/cube   22893    1346
 me   1 NQTOTC NQ/cube   11454    5727
 me   2 NQTOTC NQ/cube   12752    3188
 me   3 NQTOTC NQ/cube   11641    5820
 me   4 NQTOTC NQ/cube   10866    3622
 me   5 NQTOTC NQ/cube   11454    5727
 me   6 NQTOTC NQ/cube   10866    3622
 me   7 NQTOTC NQ/cube    9854    9854

 XC quadr. integrated density :      34.000000 npts:   101627 nctrs:        1

    Fock_xc Build Time:          0.2s


     <<<<<<    Before call to GETVCOUL.   >>>>>>
     <<<<<< date:  Apr 24  time: 11:22:51 >>>>>>



     <<<<<<    End of parallel region.    >>>>>>
     <<<<<< date:  Apr 24  time: 11:22:51 >>>>>>

    Total Fock Matrix Build Time:          2.2s
 Etnew, Ecore, Ecoul, Exc(1), Exc(2), Totsic:   -2401.2060921907782       -3341.5531864346876        1027.1585283856596       -86.811434141750013        0.0000000000000000        0.0000000000000000     
  delta =   -2401.2060921907782     
  delta =   -2401.2060921907782     
  delta =   -2401.2060921907782     


         Total DFT energy =    -2401.206092190778
      One electron energy =    -3341.553186434688
           Coulomb energy =     1027.158528385660
    Exchange-Corr. energy =      -86.811434141750
 Nuclear repulsion energy =        0.000000000000

 Numeric. integr. density =       33.999999999516

  delta =   -2401.2060921907782     
  delta =   -2401.2060921907782     
  delta =   -2401.2060921907782     
  delta =   -2401.2060921907782     
  delta =   -2401.2060921907782     
     Total iterative time =      9.9s




     <<<<<<        calling diis driver    >>>>>>
     <<<<<< date:  Apr 24  time: 11:22:51 >>>>>>

 nhist                     1  pulay matrix 
   0.0000E+00
  -1.0000E+00   8.6508E-01


     <<<<<<         called diis driver    >>>>>>
     <<<<<< date:  Apr 24  time: 11:22:51 >>>>>>


 global array: fock transf[1:69,1:69],  handle: -940 

            1           2           3           4           5           6  
       ----------- ----------- ----------- ----------- ----------- -----------
   1       6.89503   -11.00026    -0.00000    -0.00000    -0.00000     5.70326
   2     -11.00026    42.61836    -0.00000    -0.00000    -0.00000   -34.06869
   3      -0.00000    -0.00000     2.61401     0.00142     0.00203    -0.00000
   4      -0.00000    -0.00000     0.00142     2.62052     0.00973    -0.00000
   5      -0.00000    -0.00000     0.00203     0.00973     2.62750    -0.00000
   6       5.70326   -34.06869    -0.00000    -0.00000    -0.00000    33.22802
   7      -0.00000    -0.00000     0.02615    -0.82860     0.12012    -0.00000
   8      -0.00000    -0.00000    -0.08675    -0.13157    -0.82884    -0.00000
   9      -0.00000    -0.00000    -0.83106    -0.01388     0.08797    -0.00000
  10       0.03269     0.67370    -0.00000    -0.00000    -0.00000    -1.33506
  11       0.00000    -0.00000    -0.00205    -0.00223    -0.00157     0.00000
  12       0.13459     0.68875     0.00000     0.00000     0.00000    -1.02133
  13       0.00000     0.00000    -0.00110     0.00062     0.00201     0.00000
  14       0.00000     0.00000    -0.00281     0.00263     0.00003     0.00000
  15      -0.00000    -0.00000     0.00014    -0.00008    -0.00217    -0.00000
  16      -0.00300     0.00274     0.00000     0.00000     0.00000     0.00360
  17       0.00041    -0.00037    -0.00000    -0.00000    -0.00000    -0.00049
  18      -0.00168     0.00154     0.00000     0.00000     0.00000     0.00203
  19       0.00000     0.00000     0.02657    -0.03053    -0.13545     0.00000
  20      -0.00000    -0.00000    -0.04235     0.13004    -0.03313    -0.00000
  21       0.00000     0.00000    -0.13271    -0.04906    -0.01947     0.00000
  22      -0.00150     0.00137    -0.00000    -0.00000    -0.00000     0.00180
  23       0.00064    -0.00058    -0.00000     0.00000    -0.00000    -0.00076
  24      -0.00000     0.00000     0.00073     0.00074     0.00047     0.00000
  25       0.00000     0.00000     0.07212    -0.48351     0.02548     0.00000
  26      -0.00000    -0.00000    -0.12727     0.00781     0.47512    -0.00000
  27       0.00000     0.00000    -0.46588    -0.07706    -0.12555     0.00000
  28       0.00082    -0.00057     0.00000     0.00000     0.00000    -0.00066
  29       0.00061    -0.00042     0.00000     0.00000     0.00000    -0.00049
  30       0.00027    -0.00019     0.00000     0.00000     0.00000    -0.00022
  31      -0.00000     0.00000     0.00009    -0.00015     0.00026    -0.00000
  32       0.00000     0.00000     0.00034    -0.00029     0.00058     0.00000
  33       0.00000    -0.00000    -0.00087     0.00073     0.00044    -0.00000
  34      -0.00000    -0.00000    -0.01631     0.02331     0.06268    -0.00000
  35      -0.00000    -0.00000     0.04450    -0.04173     0.02796    -0.00000
  36      -0.00000    -0.00000     0.04694     0.04756    -0.00534    -0.00000
  37       0.07208    -0.01144     0.00000     0.00000     0.00000    -0.34733
  38       0.00045    -0.00028     0.00000     0.00000     0.00000    -0.00050
  39      -0.00029     0.00018    -0.00000    -0.00000    -0.00000     0.00033
  40      -0.00052     0.00032    -0.00000    -0.00000    -0.00000     0.00059
  41      -0.00030     0.00020     0.00000     0.00000     0.00000     0.00024
  42       0.00040    -0.00028     0.00000     0.00000     0.00000    -0.00032
  43      -0.00000    -0.00000     0.01351    -0.00506    -0.03412    -0.00000
  44      -0.00000    -0.00000     0.00542    -0.03668     0.00953    -0.00000
  45      -0.00000    -0.00000    -0.03555    -0.00708    -0.01078    -0.00000
  46      -0.00039     0.00027    -0.00000    -0.00000    -0.00000     0.00040
  47      -0.00002     0.00001    -0.00000    -0.00000     0.00000     0.00002
  48       0.00022    -0.00015     0.00000     0.00000     0.00000    -0.00022
  49       0.00035    -0.00022    -0.00000    -0.00000    -0.00000    -0.00039
  50      -0.00005     0.00003     0.00000     0.00000     0.00000     0.00006
  51       0.12529    -0.40585     0.00000     0.00000    -0.00000     0.18396
  52      -0.00000    -0.00000    -0.00439     0.00046     0.01968    -0.00000
  53       0.00000     0.00000    -0.01762    -0.00897    -0.00382    -0.00000
  54      -0.00000    -0.00000    -0.00863     0.01803    -0.00227     0.00000
  55       0.01190    -0.23072    -0.00000    -0.00000    -0.00000     0.29698
  56      -0.00000    -0.00000     0.02743    -0.04339    -0.00170    -0.00000
  57       0.00000     0.00000     0.04064     0.02788     0.01772     0.00000
  58      -0.00000    -0.00000     0.01250     0.00700    -0.05062    -0.00000
  59       0.00014    -0.00010    -0.00000    -0.00000    -0.00000    -0.00014
  60      -0.00016     0.00011    -0.00000    -0.00000     0.00000     0.00016
  61       0.00000     0.00000    -0.01700    -0.00199     0.05788     0.00000
  62       0.00000     0.00000     0.05111     0.02678     0.01679     0.00000
  63      -0.00000    -0.00000     0.02594    -0.05378     0.00522    -0.00000
  64       0.02048     0.20787    -0.00000    -0.00000    -0.00000    -0.25306
  65      -0.17436     0.73487     0.00000     0.00000     0.00000    -0.54506
  66      -0.00000    -0.00000     0.04167     0.01027     0.00608    -0.00000
  67       0.00000     0.00000    -0.00232     0.02740    -0.03316     0.00000
  68      -0.00000    -0.00000    -0.01079     0.03249     0.02867    -0.00000
  69      -0.07427     0.20096    -0.00000    -0.00000    -0.00000    -0.11185

            7           8           9          10          11          12  
       ----------- ----------- ----------- ----------- ----------- -----------
   1      -0.00000    -0.00000    -0.00000     0.03269     0.00000     0.13459
   2      -0.00000    -0.00000    -0.00000     0.67370    -0.00000     0.68875
   3       0.02615    -0.08675    -0.83106    -0.00000    -0.00205     0.00000
   4      -0.82860    -0.13157    -0.01388    -0.00000    -0.00223     0.00000
   5       0.12012    -0.82884     0.08797    -0.00000    -0.00157     0.00000
   6      -0.00000    -0.00000    -0.00000    -1.33506     0.00000    -1.02133
   7       1.15932     0.00624     0.00030    -0.00000     0.00329     0.00000
   8       0.00624     1.16774     0.00100    -0.00000     0.00367     0.00000
   9       0.00030     0.00100     1.15676    -0.00000     0.00322     0.00000
  10      -0.00000    -0.00000    -0.00000     0.89163     0.00000     1.18913
  11       0.00329     0.00367     0.00322     0.00000     1.43466    -0.00000
  12       0.00000     0.00000     0.00000     1.18913    -0.00000     3.18528
  13      -0.00136    -0.00214     0.00151    -0.00000    -0.00004     0.00000
  14      -0.00303    -0.00043     0.00326     0.00000     0.00002     0.00000
  15       0.00004     0.00261     0.00018    -0.00000     0.00007    -0.00000
  16       0.00000     0.00000     0.00000    -0.00428    -0.00000    -0.00003
  17      -0.00000    -0.00000    -0.00000     0.00058    -0.00000     0.00000
  18       0.00000     0.00000     0.00000    -0.00241     0.00000    -0.00002
  19       0.02833     0.40999    -0.12478     0.00000     0.00687    -0.00000
  20      -0.40932     0.05638     0.11022    -0.00000    -0.00459     0.00000
  21       0.12379     0.11745     0.39459     0.00000     0.01249    -0.00000
  22      -0.00000    -0.00000    -0.00000    -0.00214    -0.00000    -0.00002
  23      -0.00000    -0.00000    -0.00000     0.00091    -0.00000     0.00001
  24      -0.00082    -0.00082    -0.00089     0.00000    -0.42930    -0.00000
  25       0.67665     0.05757    -0.08540     0.00000    -0.00197    -0.00000
  26       0.08118    -0.63667     0.24665    -0.00000     0.00109     0.00000
  27       0.05999     0.25604     0.63079     0.00000    -0.00296    -0.00000
  28       0.00000     0.00000     0.00000     0.00132     0.00000     0.00600
  29       0.00000     0.00000     0.00000     0.00098    -0.00000     0.00446
  30       0.00000     0.00000     0.00000     0.00044    -0.00000     0.00199
  31       0.00006    -0.00020    -0.00002     0.00000     0.00002     0.00000
  32       0.00036    -0.00057    -0.00038     0.00000     0.00006     0.00000
  33      -0.00077    -0.00045     0.00092    -0.00000     0.00003    -0.00000
  34      -0.02659    -0.11428     0.04010    -0.00000     0.00164     0.00000
  35       0.08437    -0.04622    -0.07392    -0.00000     0.00065     0.00000
  36      -0.08391    -0.01317    -0.08724    -0.00000     0.00300     0.00000
  37       0.00000     0.00000     0.00000     0.30347    -0.00000    -0.04689
  38       0.00000     0.00000     0.00000     0.00010    -0.00000    -0.00117
  39      -0.00000    -0.00000    -0.00000    -0.00006    -0.00000     0.00076
  40      -0.00000    -0.00000    -0.00000    -0.00012     0.00000     0.00136
  41       0.00000     0.00000     0.00000    -0.00048     0.00000    -0.00217
  42      -0.00000    -0.00000    -0.00000     0.00065    -0.00000     0.00293
  43      -0.00445    -0.05931     0.02699    -0.00000    -0.00284     0.00000
  44      -0.06318     0.00376     0.00615    -0.00000    -0.00378     0.00000
  45      -0.00913    -0.02910    -0.05706    -0.00000    -0.00703     0.00000
  46      -0.00000    -0.00000    -0.00000     0.00046    -0.00000     0.00352
  47      -0.00000     0.00000    -0.00000     0.00002     0.00000     0.00018
  48       0.00000     0.00000     0.00000    -0.00026    -0.00000    -0.00197
  49      -0.00000    -0.00000    -0.00000     0.00008     0.00000    -0.00091
  50       0.00000     0.00000     0.00000    -0.00001    -0.00000     0.00013
  51      -0.00000    -0.00000     0.00000    -0.28301    -0.00000    -1.85581
  52       0.00241    -0.01995     0.00674    -0.00000     0.00008     0.00000
  53       0.00811     0.00727     0.01804     0.00000    -0.00020    -0.00000
  54      -0.01930     0.00039     0.00842    -0.00000     0.00006     0.00000
  55      -0.00000    -0.00000    -0.00000    -0.37747     0.00000    -1.72600
  56       0.06533     0.00759    -0.04048    -0.00000     0.00187     0.00000
  57      -0.03541    -0.03819    -0.05928     0.00000    -0.00788    -0.00000
  58      -0.02120     0.06951    -0.02668    -0.00000     0.00152     0.00000
  59      -0.00000    -0.00000    -0.00000    -0.00016     0.00000    -0.00125
  60       0.00000    -0.00000     0.00000     0.00019    -0.00000     0.00143
  61       0.01367    -0.07571     0.03194     0.00000    -0.00185    -0.00000
  62      -0.03139    -0.03620    -0.06963     0.00000    -0.00676    -0.00000
  63       0.07651     0.00058    -0.03416    -0.00000     0.00209     0.00000
  64      -0.00000    -0.00000    -0.00000     0.16817     0.00000     0.78678
  65       0.00000     0.00000     0.00000     0.24624    -0.00000     1.34236
  66      -0.00613    -0.00930    -0.03073    -0.00000    -0.00475     0.00000
  67      -0.02368     0.02133    -0.00111     0.00000    -0.00029    -0.00000
  68      -0.02157    -0.02461     0.00974    -0.00000    -0.00358     0.00000
  69      -0.00000    -0.00000    -0.00000     0.01525    -0.00000     0.22248

           13          14          15          16          17          18  
       ----------- ----------- ----------- ----------- ----------- -----------
   1       0.00000     0.00000    -0.00000    -0.00300     0.00041    -0.00168
   2       0.00000     0.00000    -0.00000     0.00274    -0.00037     0.00154
   3      -0.00110    -0.00281     0.00014     0.00000    -0.00000     0.00000
   4       0.00062     0.00263    -0.00008     0.00000    -0.00000     0.00000
   5       0.00201     0.00003    -0.00217     0.00000    -0.00000     0.00000
   6       0.00000     0.00000    -0.00000     0.00360    -0.00049     0.00203
   7      -0.00136    -0.00303     0.00004     0.00000    -0.00000     0.00000
   8      -0.00214    -0.00043     0.00261     0.00000    -0.00000     0.00000
   9       0.00151     0.00326     0.00018     0.00000    -0.00000     0.00000
  10      -0.00000     0.00000    -0.00000    -0.00428     0.00058    -0.00241
  11      -0.00004     0.00002     0.00007    -0.00000    -0.00000     0.00000
  12       0.00000     0.00000    -0.00000    -0.00003     0.00000    -0.00002
  13       1.42747     0.00600    -0.00943     0.00000    -0.00000    -0.00000
  14       0.00600     1.44372     0.00156    -0.00000     0.00000     0.00000
  15      -0.00943     0.00156     1.43263     0.00000     0.00000     0.00000
  16       0.00000    -0.00000     0.00000     1.35701     0.00094     0.00835
  17      -0.00000     0.00000     0.00000     0.00094     1.34843    -0.00564
  18      -0.00000     0.00000     0.00000     0.00835    -0.00564     1.35226
  19      -0.00002    -0.00209     0.00029    -0.00000     0.00000    -0.00000
  20       0.00681     0.00076    -0.00051     0.00000     0.00000     0.00000
  21      -0.00109     0.00108     0.00479    -0.00000     0.00000    -0.00000
  22       0.00000     0.00000    -0.00000     0.00789     0.00281    -0.00317
  23      -0.00000     0.00000     0.00000     0.00063     0.00694     0.00067
  24      -0.00004     0.00001     0.00006    -0.00000    -0.00000     0.00000
  25       0.00247    -0.00230    -0.00066    -0.00000     0.00000    -0.00000
  26       0.00260    -0.00020    -0.00216     0.00000    -0.00000     0.00000
  27       0.00021     0.00151    -0.00167    -0.00000     0.00000    -0.00000
  28      -0.00000    -0.00000     0.00000    -0.47937    -0.06209     0.05877
  29       0.00000    -0.00000    -0.00000    -0.05973    -0.03141    -0.48176
  30      -0.00000    -0.00000    -0.00000    -0.06535     0.47995    -0.02732
  31       0.35826    -0.19192     0.11865    -0.00000     0.00000     0.00000
  32       0.04030    -0.17928    -0.38926     0.00000    -0.00000     0.00000
  33       0.22707     0.34481    -0.13447    -0.00000     0.00000     0.00000
  34       0.00238     0.00100    -0.00244     0.00000    -0.00000     0.00000
  35       0.00257    -0.00399     0.00012     0.00000    -0.00000     0.00000
  36      -0.00270     0.00027     0.00252     0.00000    -0.00000     0.00000
  37      -0.00000    -0.00000    -0.00000    -0.01494     0.00202    -0.00840
  38      -0.00000    -0.00000    -0.00000    -0.19404     0.22068     0.02912
  39      -0.00000     0.00000     0.00000    -0.03364    -0.07521     0.28501
  40       0.00000     0.00000     0.00000     0.22394     0.18080     0.07622
  41       0.00000     0.00000    -0.00000     0.00210     0.00177    -0.00072
  42      -0.00000     0.00000    -0.00000    -0.00101     0.00135     0.00066
  43       0.00386     0.00273    -0.00334     0.00000    -0.00000     0.00000
  44       0.00186     0.00478     0.00043     0.00000    -0.00000     0.00000
  45      -0.00044    -0.00343    -0.00185     0.00000    -0.00000     0.00000
  46      -0.00000    -0.00000    -0.00000    -0.12163    -0.02536    -0.01325
  47       0.00000    -0.00000    -0.00000     0.02782    -0.08993    -0.08268
  48       0.00000     0.00000     0.00000     0.00692    -0.08339     0.09301
  49      -0.00000     0.00000     0.00000    -0.00237     0.00044     0.00112
  50       0.00000     0.00000     0.00000     0.00170     0.00272    -0.00039
  51      -0.00000     0.00000    -0.00000    -0.00003     0.00000    -0.00002
  52      -0.00020    -0.00005     0.00019    -0.00000     0.00000    -0.00000
  53      -0.00003    -0.00011    -0.00001    -0.00000     0.00000    -0.00000
  54      -0.00004    -0.00030    -0.00001     0.00000     0.00000     0.00000
  55      -0.00000     0.00000    -0.00000     0.00068    -0.00009     0.00038
  56      -0.00259    -0.01058     0.00054     0.00000     0.00000     0.00000
  57       0.00001    -0.00238    -0.00125    -0.00000     0.00000    -0.00000
  58      -0.00632    -0.00069     0.00614     0.00000    -0.00000     0.00000
  59      -0.00000     0.00000     0.00000    -0.00013    -0.00003    -0.00002
  60       0.00000     0.00000     0.00000     0.00011    -0.00005     0.00004
  61       0.00541     0.00166    -0.00512    -0.00000     0.00000    -0.00000
  62      -0.00030    -0.00284    -0.00098    -0.00000     0.00000    -0.00000
  63      -0.00166    -0.00843    -0.00013    -0.00000     0.00000     0.00000
  64       0.00000    -0.00000     0.00000    -0.00709     0.00096    -0.00399
  65       0.00000    -0.00000     0.00000     0.00350    -0.00047     0.00197
  66      -0.00148    -0.00444     0.00006     0.00000    -0.00000     0.00000
  67      -0.00268     0.00394     0.00340    -0.00000     0.00000    -0.00000
  68       0.00382     0.00544    -0.00293     0.00000    -0.00000     0.00000
  69       0.00000    -0.00000     0.00000     0.00083    -0.00011     0.00046

           19          20          21          22          23          24  
       ----------- ----------- ----------- ----------- ----------- -----------
   1       0.00000    -0.00000     0.00000    -0.00150     0.00064    -0.00000
   2       0.00000    -0.00000     0.00000     0.00137    -0.00058     0.00000
   3       0.02657    -0.04235    -0.13271    -0.00000    -0.00000     0.00073
   4      -0.03053     0.13004    -0.04906    -0.00000     0.00000     0.00074
   5      -0.13545    -0.03313    -0.01947    -0.00000    -0.00000     0.00047
   6       0.00000    -0.00000     0.00000     0.00180    -0.00076     0.00000
   7       0.02833    -0.40932     0.12379    -0.00000    -0.00000    -0.00082
   8       0.40999     0.05638     0.11745    -0.00000    -0.00000    -0.00082
   9      -0.12478     0.11022     0.39459    -0.00000    -0.00000    -0.00089
  10       0.00000    -0.00000     0.00000    -0.00214     0.00091     0.00000
  11       0.00687    -0.00459     0.01249    -0.00000    -0.00000    -0.42930
  12      -0.00000     0.00000    -0.00000    -0.00002     0.00001    -0.00000
  13      -0.00002     0.00681    -0.00109     0.00000    -0.00000    -0.00004
  14      -0.00209     0.00076     0.00108     0.00000     0.00000     0.00001
  15       0.00029    -0.00051     0.00479    -0.00000     0.00000     0.00006
  16      -0.00000     0.00000    -0.00000     0.00789     0.00063    -0.00000
  17       0.00000     0.00000     0.00000     0.00281     0.00694    -0.00000
  18      -0.00000     0.00000    -0.00000    -0.00317     0.00067     0.00000
  19       1.42403    -0.00141     0.00265     0.00000     0.00000    -0.00397
[...]
  39       0.00072    -0.00110     0.00002
  40      -0.00048     0.00074    -0.00001
  41      -4.21282   -16.52200    -1.94352
  42      -0.00106     0.00164    -0.00002
  43      -4.21325   -16.52133    -1.94353
  44      -0.38007    -2.99907    -0.30992
  45      -0.00037     0.00038    -0.00001
  46       0.00025    -0.00025     0.00000
  47      -0.38039    -2.99874    -0.30992
  48       0.00054    -0.00056     0.00001
  49      -0.38017    -2.99897    -0.30992
  50      -0.00000     0.00000     0.00000
  51      -0.00000     0.00000     0.00000
  52       0.00000    -0.00000    -0.00000
  53      -0.00000     0.00000     0.00000
  54       0.00000     0.00000    -0.00000
  55      -0.00000     0.00000     0.00000
  56      -0.00000     0.00000     0.00000
  57       0.00000    -0.00000    -0.00000
  58      -0.00000     0.00000     0.00000
  59       0.00000    -0.00000    -0.00000
  60      -0.00000     0.00000     0.00000
  61      -0.00000     0.00000     0.00000
  62       0.00000    -0.00000    -0.00000
  63      -0.00000     0.00000     0.00000
  64      -0.00000    -0.00000     0.00000
  65      -0.00000     0.00000     0.00000
  66      -0.00000     0.00000     0.00000
  67       0.00000    -0.00000    -0.00000
  68      -0.00000     0.00000     0.00000
  69       0.00000    -0.00000    -0.00000
  int_init: cando_txs set to always be  F
                                NWChem TDDFT Module
                                -------------------


            General Information
            -------------------
           No. of orbitals :     138
            Alpha orbitals :      69
             Beta orbitals :      69
        Alpha frozen cores :       0
         Beta frozen cores :       0
     Alpha frozen virtuals :       0
      Beta frozen virtuals :       0
         Spin multiplicity :       3
    Number of AO functions :      69
        Use of symmetry is : off
      Symmetry adaption is : off
         Schwarz screening :  0.10D-07

              XC Information
              --------------
              Hartree-Fock (Exact) Exchange   1.00          
              LC-wPBE(h)Exchange Functional   1.00          
     Perdew 1991 LDA Correlation Functional   1.00 local    
    PerdewBurkeErnz. Correlation Functional   1.00 non-local
           Alpha           :  0.00
           Beta            :  1.00
           Gamma           :  0.40

             TDDFT Information
             -----------------
          Calculation type : TDDFT             
         Wavefunction type : Unrestricted
          No. of electrons :      34
           Alpha electrons :      18
            Beta electrons :      16
              No. of roots :       5
          Max subspacesize :    5000
            Max iterations :     100
               Target root :       1
           Target symmetry : none
      Symmetry restriction : off
                 Algorithm : Optimal
        Davidson threshold :  0.10D-03

            Memory Information
            ------------------
          Available GA space size is       52428790478 doubles
          Available MA space size is        4194422252 doubles
          Length of a trial vector is          918     848
          Algorithm : Incore multiple tensor contraction
          Estimated peak GA usage is          36137508 doubles
          Estimated peak MA usage is             18000 doubles

    5 smallest eigenvalue differences (eV) 
--------------------------------------------------------
  No. Spin  Occ  Vir  Irrep   E(Occ)    E(Vir)   E(Diff)
--------------------------------------------------------
    1    2   16   17 a        -0.356    -0.061     8.011
    2    2   16   18 a        -0.356    -0.061     8.011
    3    2   16   19 a        -0.356     0.054    11.136
    4    1   18   19 a        -0.381     0.050    11.710
    5    2   16   20 a        -0.356     0.076    11.750
--------------------------------------------------------

  Entering Davidson iterations
  Unrestricted

  Iter   NTrls   NConv    DeltaV     DeltaE      Time   
  ----  ------  ------  ---------  ---------  --------- 
    1      5       0     0.11E+00   0.10+100       10.2
    2     15       0     0.53E-01   0.15E-01       15.9
    3     25       0     0.26E-01   0.20E-02       24.4
    4     33       0     0.92E-02   0.30E-03       21.8
    5     41       0     0.44E-02   0.11E-03       15.8
    6     49       4     0.11E-02   0.86E-05       12.5
    7     51       4     0.17E-03   0.20E-06        9.0
    8     53       5     0.57E-04   0.29E-08       11.3
  ----  ------  ------  ---------  ---------  --------- 
  Convergence criterion met

  Ground state a       -2401.230767510494 a.u.
  <S2> =   2.0054

  ----------------------------------------------------------------------------
  Root   1         a              0.000183600 a.u.                0.0050 eV 
  <S2> =   2.0073
  ----------------------------------------------------------------------------
     Transition Moments    X  0.00000   Y  0.00000   Z -0.00000
     Transition Moments   XX -1.24770  XY  0.41362  XZ  3.17450
     Transition Moments   YY  7.91755  YZ  2.31400  ZZ -6.66985
     Dipole Oscillator Strength                    0.0000000000
     Electric Quadrupole                           0.0000000000
     Magnetic Dipole                               0.0000000000
     Total Oscillator Strength                     0.0000000000

     Occ.   15 alpha a   ---  Virt.   25 alpha a    0.11275 X
     Occ.   15 alpha a   ---  Virt.   25 alpha a    0.11270 Y
     Occ.   15 alpha a   ---  Virt.   34 alpha a    0.15232 X
     Occ.   15 alpha a   ---  Virt.   34 alpha a    0.15227 Y
     Occ.   15 alpha a   ---  Virt.   58 alpha a    0.05513 X
     Occ.   15 alpha a   ---  Virt.   58 alpha a    0.05512 Y
     Occ.   16 alpha a   ---  Virt.   39 alpha a    0.06086 X
     Occ.   16 alpha a   ---  Virt.   39 alpha a    0.06083 Y
     Occ.   16 alpha a   ---  Virt.   40 alpha a   -0.05912 X
     Occ.   16 alpha a   ---  Virt.   40 alpha a   -0.05909 Y
     Occ.   17 alpha a   ---  Virt.   22 alpha a    0.06576 X
     Occ.   17 alpha a   ---  Virt.   22 alpha a    0.06569 Y
     Occ.   17 alpha a   ---  Virt.   31 alpha a   -0.07537 X
     Occ.   17 alpha a   ---  Virt.   31 alpha a   -0.07532 Y
     Occ.   17 alpha a   ---  Virt.   39 alpha a    0.05912 X
     Occ.   17 alpha a   ---  Virt.   39 alpha a    0.05909 Y
     Occ.   17 alpha a   ---  Virt.   40 alpha a    0.06086 X
     Occ.   17 alpha a   ---  Virt.   40 alpha a    0.06083 Y
     Occ.   17 alpha a   ---  Virt.   43 alpha a    0.05709 X
     Occ.   17 alpha a   ---  Virt.   43 alpha a    0.05707 Y
     Occ.   18 alpha a   ---  Virt.   21 alpha a    0.06009 X
     Occ.   18 alpha a   ---  Virt.   21 alpha a    0.06002 Y
     Occ.   18 alpha a   ---  Virt.   30 alpha a   -0.06696 X
     Occ.   18 alpha a   ---  Virt.   30 alpha a   -0.06690 Y
     Occ.   18 alpha a   ---  Virt.   41 alpha a   -0.09709 X
     Occ.   18 alpha a   ---  Virt.   41 alpha a   -0.09704 Y
     Occ.   18 alpha a   ---  Virt.   42 alpha a    0.07924 X
     Occ.   18 alpha a   ---  Virt.   42 alpha a    0.07921 Y
     Occ.   18 alpha a   ---  Virt.   53 alpha a   -0.07023 X
     Occ.   18 alpha a   ---  Virt.   53 alpha a   -0.07021 Y
     Occ.   15 beta  a   ---  Virt.   24 beta  a   -0.13767 X
     Occ.   15 beta  a   ---  Virt.   24 beta  a   -0.13743 Y
     Occ.   15 beta  a   ---  Virt.   32 beta  a   -0.12132 X
     Occ.   15 beta  a   ---  Virt.   32 beta  a   -0.12117 Y
     Occ.   16 beta  a   ---  Virt.   17 beta  a   -3.49002 X
     Occ.   16 beta  a   ---  Virt.   17 beta  a   -3.34761 Y
     Occ.   16 beta  a   ---  Virt.   18 beta  a    0.13335 X
     Occ.   16 beta  a   ---  Virt.   18 beta  a    0.12791 Y
     Occ.   16 beta  a   ---  Virt.   21 beta  a   -0.47852 X
     Occ.   16 beta  a   ---  Virt.   21 beta  a   -0.45956 Y
     Occ.   16 beta  a   ---  Virt.   22 beta  a    0.11309 X
     Occ.   16 beta  a   ---  Virt.   22 beta  a    0.10861 Y
     Occ.   16 beta  a   ---  Virt.   30 beta  a    0.26124 X
     Occ.   16 beta  a   ---  Virt.   30 beta  a    0.25111 Y
     Occ.   16 beta  a   ---  Virt.   31 beta  a   -0.06346 X
     Occ.   16 beta  a   ---  Virt.   31 beta  a   -0.06100 Y
     Occ.   16 beta  a   ---  Virt.   45 beta  a   -0.06840 X
     Occ.   16 beta  a   ---  Virt.   45 beta  a   -0.06553 Y
  ----------------------------------------------------------------------------
  Root   2         a              0.000183600 a.u.                0.0050 eV 
  <S2> =   2.0073
  ----------------------------------------------------------------------------
     Transition Moments    X -0.00000   Y  0.00000   Z -0.00000
     Transition Moments   XX  5.36652  XY  5.46192  XZ -2.86224
     Transition Moments   YY -2.05974  YZ  3.15518  ZZ -3.30679
     Dipole Oscillator Strength                    0.0000000000
     Electric Quadrupole                           0.0000000000
     Magnetic Dipole                               0.0000000000
     Total Oscillator Strength                     0.0000000000

     Occ.   15 alpha a   ---  Virt.   26 alpha a    0.11275 X
     Occ.   15 alpha a   ---  Virt.   26 alpha a    0.11270 Y
     Occ.   15 alpha a   ---  Virt.   35 alpha a    0.15232 X
     Occ.   15 alpha a   ---  Virt.   35 alpha a    0.15227 Y
     Occ.   15 alpha a   ---  Virt.   59 alpha a    0.05513 X
     Occ.   15 alpha a   ---  Virt.   59 alpha a    0.05512 Y
     Occ.   16 alpha a   ---  Virt.   22 alpha a    0.06576 X
     Occ.   16 alpha a   ---  Virt.   22 alpha a    0.06569 Y
     Occ.   16 alpha a   ---  Virt.   31 alpha a   -0.07537 X
     Occ.   16 alpha a   ---  Virt.   31 alpha a   -0.07531 Y
     Occ.   16 alpha a   ---  Virt.   39 alpha a   -0.05911 X
     Occ.   16 alpha a   ---  Virt.   39 alpha a   -0.05909 Y
     Occ.   16 alpha a   ---  Virt.   40 alpha a   -0.06086 X
     Occ.   16 alpha a   ---  Virt.   40 alpha a   -0.06083 Y
     Occ.   16 alpha a   ---  Virt.   43 alpha a    0.05709 X
     Occ.   16 alpha a   ---  Virt.   43 alpha a    0.05707 Y
     Occ.   17 alpha a   ---  Virt.   39 alpha a    0.06086 X
     Occ.   17 alpha a   ---  Virt.   39 alpha a    0.06083 Y
     Occ.   17 alpha a   ---  Virt.   40 alpha a   -0.05911 X
     Occ.   17 alpha a   ---  Virt.   40 alpha a   -0.05909 Y
     Occ.   18 alpha a   ---  Virt.   20 alpha a    0.06009 X
     Occ.   18 alpha a   ---  Virt.   20 alpha a    0.06002 Y
     Occ.   18 alpha a   ---  Virt.   29 alpha a   -0.06696 X
     Occ.   18 alpha a   ---  Virt.   29 alpha a   -0.06690 Y
     Occ.   18 alpha a   ---  Virt.   41 alpha a   -0.07924 X
     Occ.   18 alpha a   ---  Virt.   41 alpha a   -0.07921 Y
     Occ.   18 alpha a   ---  Virt.   42 alpha a   -0.09709 X
     Occ.   18 alpha a   ---  Virt.   42 alpha a   -0.09704 Y
     Occ.   18 alpha a   ---  Virt.   54 alpha a   -0.07023 X
     Occ.   18 alpha a   ---  Virt.   54 alpha a   -0.07021 Y
     Occ.   15 beta  a   ---  Virt.   25 beta  a   -0.13767 X
     Occ.   15 beta  a   ---  Virt.   25 beta  a   -0.13743 Y
     Occ.   15 beta  a   ---  Virt.   33 beta  a   -0.12132 X
     Occ.   15 beta  a   ---  Virt.   33 beta  a   -0.12117 Y
     Occ.   16 beta  a   ---  Virt.   17 beta  a   -0.13335 X
     Occ.   16 beta  a   ---  Virt.   17 beta  a   -0.12791 Y
     Occ.   16 beta  a   ---  Virt.   18 beta  a   -3.49001 X
     Occ.   16 beta  a   ---  Virt.   18 beta  a   -3.34761 Y
     Occ.   16 beta  a   ---  Virt.   21 beta  a   -0.11309 X
     Occ.   16 beta  a   ---  Virt.   21 beta  a   -0.10861 Y
     Occ.   16 beta  a   ---  Virt.   22 beta  a   -0.47852 X
     Occ.   16 beta  a   ---  Virt.   22 beta  a   -0.45956 Y
     Occ.   16 beta  a   ---  Virt.   30 beta  a    0.06346 X
     Occ.   16 beta  a   ---  Virt.   30 beta  a    0.06100 Y
     Occ.   16 beta  a   ---  Virt.   31 beta  a    0.26124 X
     Occ.   16 beta  a   ---  Virt.   31 beta  a    0.25111 Y
     Occ.   16 beta  a   ---  Virt.   46 beta  a   -0.06840 X
     Occ.   16 beta  a   ---  Virt.   46 beta  a   -0.06553 Y
  ----------------------------------------------------------------------------
  Root   3         a              0.237581465 a.u.                6.4649 eV 
  <S2> =   3.5083
  ----------------------------------------------------------------------------
     Transition Moments    X  0.17736   Y  0.39183   Z -0.26291
     Transition Moments   XX -0.00000  XY -0.00000  XZ  0.00000
     Transition Moments   YY -0.00000  YZ  0.00000  ZZ -0.00000
     Dipole Oscillator Strength                    0.0402481546
     Electric Quadrupole                           0.0000000000
     Magnetic Dipole                               0.0000000000
     Total Oscillator Strength                     0.0402481546

     Occ.   18 alpha a   ---  Virt.   19 alpha a    0.24580 X
     Occ.   18 alpha a   ---  Virt.   28 alpha a   -0.09499 X
     Occ.   16 beta  a   ---  Virt.   19 beta  a   -0.93030 X
     Occ.   16 beta  a   ---  Virt.   23 beta  a    0.06879 X
     Occ.   16 beta  a   ---  Virt.   28 beta  a    0.23726 X
  ----------------------------------------------------------------------------
  Root   4         a              0.257718236 a.u.                7.0129 eV 
  <S2> =   2.4977
  ----------------------------------------------------------------------------
     Transition Moments    X -0.29003   Y -0.64075   Z  0.42993
     Transition Moments   XX  0.00000  XY -0.00000  XZ -0.00000
     Transition Moments   YY  0.00000  YZ -0.00000  ZZ  0.00000
     Dipole Oscillator Strength                    0.1167477031
     Electric Quadrupole                           0.0000000000
     Magnetic Dipole                               0.0000000000
     Total Oscillator Strength                     0.1167477031

     Occ.   18 alpha a   ---  Virt.   19 alpha a    0.93245 X
     Occ.   18 alpha a   ---  Virt.   28 alpha a   -0.23348 X
     Occ.   16 beta  a   ---  Virt.   19 beta  a    0.26375 X
  ----------------------------------------------------------------------------
  Root   5         a              0.282326232 a.u.                7.6825 eV 
  <S2> =   3.5002
  ----------------------------------------------------------------------------
     Transition Moments    X -0.00000   Y -0.00000   Z  0.00000
     Transition Moments   XX -0.49746  XY -0.43377  XZ  0.29105
     Transition Moments   YY -1.25944  YZ  0.64301  ZZ -0.73257
     Dipole Oscillator Strength                    0.0000000000
     Electric Quadrupole                           0.0000001005
     Magnetic Dipole                               0.0000000000
     Total Oscillator Strength                     0.0000001005

     Occ.   16 alpha a   ---  Virt.   20 alpha a    0.05600 X
     Occ.   17 alpha a   ---  Virt.   21 alpha a    0.05600 X
     Occ.   18 alpha a   ---  Virt.   22 alpha a    0.25117 X
     Occ.   18 alpha a   ---  Virt.   31 alpha a   -0.08997 X
     Occ.   16 beta  a   ---  Virt.   20 beta  a   -0.93790 X
     Occ.   16 beta  a   ---  Virt.   29 beta  a    0.18773 X

              Target root =      1
          Target symmetry = none
      Ground state energy =  -2401.230767510494
        Excitation energy =      0.000183599679
     Excited state energy =  -2401.230583910815

  stored tddft:energy   -2401.2305839108149     

 Task  times  cpu:      126.7s     wall:      145.9s


                                NWChem Input Module
                                -------------------


 Summary of allocated global arrays
-----------------------------------
  No active global arrays


MA_summarize_allocated_blocks: starting scan ...
heap block 'gridpts', handle 124, address 0x1363b1a8:
	type of elements:		double precision
	number of elements:		1048456221
	address of client space:	0x1363b200
	index for client space:		12505495
	total number of bytes:		8387649864
MA_summarize_allocated_blocks: scan completed: 1 heap block, 0 stack blocks
MA usage statistics:

	allocation statistics:
					      heap	     stack
					      ----	     -----
	current number of blocks	         1	         0
	maximum number of blocks	        18	        54
	current total bytes		8387649864	         0
	maximum total bytes		8388837280	 109417544
	maximum total K-bytes		   8388838	    109418
	maximum total M-bytes		      8389	       110


                                     CITATION
                                     --------
                Please cite the following reference when publishing
                           results obtained with NWChem:

          E. Apra, E. J. Bylaska, W. A. de Jong, N. Govind, K. Kowalski,
       T. P. Straatsma, M. Valiev, H. J. J. van Dam, Y. Alexeev, J. Anchell,
       V. Anisimov, F. W. Aquino, R. Atta-Fynn, J. Autschbach, N. P. Bauman,
     J. C. Becca, D. E. Bernholdt, K. Bhaskaran-Nair, S. Bogatko, P. Borowski,
         J. Boschen, J. Brabec, A. Bruner, E. Cauet, Y. Chen, G. N. Chuev,
      C. J. Cramer, J. Daily, M. J. O. Deegan, T. H. Dunning Jr., M. Dupuis,
   K. G. Dyall, G. I. Fann, S. A. Fischer, A. Fonari, H. Fruchtl, L. Gagliardi,
      J. Garza, N. Gawande, S. Ghosh, K. Glaesemann, A. W. Gotz, J. Hammond,
       V. Helms, E. D. Hermes, K. Hirao, S. Hirata, M. Jacquelin, L. Jensen,
   B. G. Johnson, H. Jonsson, R. A. Kendall, M. Klemm, R. Kobayashi, V. Konkov,
      S. Krishnamoorthy, M. Krishnan, Z. Lin, R. D. Lins, R. J. Littlefield,
      A. J. Logsdail, K. Lopata, W. Ma, A. V. Marenich, J. Martin del Campo,
   D. Mejia-Rodriguez, J. E. Moore, J. M. Mullin, T. Nakajima, D. R. Nascimento,
    J. A. Nichols, P. J. Nichols, J. Nieplocha, A. Otero-de-la-Roza, B. Palmer,
    A. Panyala, T. Pirojsirikul, B. Peng, R. Peverati, J. Pittner, L. Pollack,
   R. M. Richard, P. Sadayappan, G. C. Schatz, W. A. Shelton, D. W. Silverstein,
   D. M. A. Smith, T. A. Soares, D. Song, M. Swart, H. L. Taylor, G. S. Thomas,
            V. Tipparaju, D. G. Truhlar, K. Tsemekhman, T. Van Voorhis,
      A. Vazquez-Mayagoitia, P. Verma, O. Villa, A. Vishnu, K. D. Vogiatzis,
        D. Wang, J. H. Weare, M. J. Williamson, T. L. Windus, K. Wolinski,
        A. T. Wong, Q. Wu, C. Yang, Q. Yu, M. Zacharias, Z. Zhang, Y. Zhao,
                                and R. J. Harrison
                        "NWChem: Past, present, and future
                         J. Chem. Phys. 152, 184102 (2020)
                               doi:10.1063/5.0004997

                                      AUTHORS
                                      -------
  E. Apra, E. J. Bylaska, N. Govind, K. Kowalski, M. Valiev, D. Mejia-Rodriguez,
       A. Kunitsa, N. P. Bauman, A. Panyala, W. A. de Jong, T. P. Straatsma,
   H. J. J. van Dam, D. Wang, T. L. Windus, J. Hammond, J. Autschbach, A. Woods,
    K. Bhaskaran-Nair, J. Brabec, K. Lopata, S. A. Fischer, S. Krishnamoorthy,
     M. Jacquelin, W. Ma, M. Klemm, O. Villa, Y. Chen, V. Anisimov, F. Aquino,
     S. Hirata, M. T. Hackler, E. Hermes, L. Jensen, J. E. Moore, J. C. Becca,
      V. Konjkov, T. Risthaus, M. Malagoli, A. Marenich, A. Otero-de-la-Roza,
        J. Mullin, P. Nichols, R. Peverati, J. Pittner, Y. Zhao, P.-D. Fan,
        A. Fonari, M. J. Williamson, R. J. Harrison, J. R. Rehr, M. Dupuis,
     D. Silverstein, D. M. A. Smith, J. Nieplocha, V. Tipparaju, M. Krishnan,
     B. E. Van Kuiken, A. Vazquez-Mayagoitia, M. Swart, Q. Wu, T. Van Voorhis,
     A. A. Auer, M. Nooijen, L. D. Crosby, E. Brown, G. Cisneros, G. I. Fann,
   H. Fruchtl, J. Garza, K. Hirao, R. A. Kendall, J. A. Nichols, K. Tsemekhman,
    K. Wolinski, J. Anchell, D. E. Bernholdt, P. Borowski, T. Clark, D. Clerc,
   H. Dachsel, M. J. O. Deegan, K. Dyall, D. Elwood, E. Glendening, M. Gutowski,
   A. C. Hess, J. Jaffe, B. G. Johnson, J. Ju, R. Kobayashi, R. Kutteh, Z. Lin,
   R. Littlefield, X. Long, B. Meng, T. Nakajima, S. Niu, L. Pollack, M. Rosing,
   K. Glaesemann, G. Sandrone, M. Stave, H. Taylor, G. Thomas, J. H. van Lenthe,
                               A. T. Wong, Z. Zhang.

 Total times  cpu:      126.7s     wall:      146.4s
