 argument  1 = /home/aditisingh4812/nw_chem/nwchem-run/nwchem-run/tddft/open/open_atom/geom-MOL-0.4/si.nw
                                         
                                         


             Northwest Computational Chemistry Package (NWChem) 7.2.3
             --------------------------------------------------------


                    Environmental Molecular Sciences Laboratory
                       Pacific Northwest National Laboratory
                                Richland, WA 99352

                              Copyright (c) 1994-2022
                       Pacific Northwest National Laboratory
                            Battelle Memorial Institute

             NWChem is an open-source computational chemistry package
                        distributed under the terms of the
                      Educational Community License (ECL) 2.0
             A copy of the license is included with this distribution
                              in the LICENSE.TXT file

                                  ACKNOWLEDGMENT
                                  --------------

            This software and its documentation were developed at the
            EMSL at Pacific Northwest National Laboratory, a multiprogram
            national laboratory, operated for the U.S. Department of Energy
            by Battelle under Contract Number DE-AC05-76RL01830. Support
            for this work was provided by the Department of Energy Office
            of Biological and Environmental Research, Office of Basic
            Energy Sciences, and the Office of Advanced Scientific Computing.


           Job information
           ---------------

    hostname        = p17
    program         = /home/aditisingh4812/nw_chem/nwchem-7.2.3-release.revision-d690e065-srconly.2024-08-27/nwchem-7.2.3/bin/LINUX64/nwchem
    date            = Thu Apr 24 11:25:09 2025

    compiled        = Mon_Apr_07_18:51:54_2025
    source          = /home/aditisingh4812/nw_chem/nwchem-7.2.3-release.revision-d690e065-srconly.2024-08-27/nwchem-7.2.3
    nwchem branch   = 7.2.3
    nwchem revision = d690e065
    ga revision     = 5.8.0
    use scalapack   = F
    input           = /home/aditisingh4812/nw_chem/nwchem-run/nwchem-run/tddft/open/open_atom/geom-MOL-0.4/si.nw
    prefix          = si.
    data base       = ./si.db
    status          = startup
    nproc           =        8
    time left       =     -1s



           Memory information
           ------------------

    heap     = 2621440000 doubles =  20000.0 Mbytes
    stack    = 2621439997 doubles =  20000.0 Mbytes
    global   = 6553600000 doubles =  50000.0 Mbytes (distinct from heap & stack)
    total    = ********** doubles =  90000.0 Mbytes
    verify   = yes
    hardfail = no 


           Directory information
           ---------------------

  0 permanent = .
  0 scratch   = .




                                NWChem Input Module
                                -------------------



 Scaling coordinates for geometry "geometry" by  1.889725989
 (inverse scale =  0.529177249)



                             Geometry "geometry" -> ""
                             -------------------------

 Output coordinates in angstroms (scale by  1.889725989 to convert to a.u.)

  No.       Tag          Charge          X              Y              Z
 ---- ---------------- ---------- -------------- -------------- --------------
    1 Si                  14.0000     0.00000000     0.00000000     0.00000000

      Atomic Mass 
      ----------- 

      Si                27.976930


 Effective nuclear repulsion energy (a.u.)       0.0000000000

            Nuclear Dipole moment (a.u.) 
            ----------------------------
        X                 Y               Z
 ---------------- ---------------- ----------------
     0.0000000000     0.0000000000     0.0000000000


            XYZ format geometry
            -------------------
     1
 geometry
 Si                    0.00000000     0.00000000     0.00000000



 Summary of "ao basis" -> "" (cartesian)
 ------------------------------------------------------------------------------
       Tag                 Description            Shells   Functions and Types
 ---------------- ------------------------------  ------  ---------------------
 *                        aug-cc-pVTZ                 on all atoms 


  pbe96 is a nonlocal functional; adding pw91lda local functional. 

                                 NWChem DFT Module
                                 -----------------


                      Basis "ao basis" -> "ao basis" (cartesian)
                      -----
  Si (Silicon)
  ------------
            Exponent  Coefficients 
       -------------- ---------------------------------------------------------
  1 S  2.54900000E+05  0.000063
  1 S  3.81900000E+04  0.000486
  1 S  8.69000000E+03  0.002545
  1 S  2.46200000E+03  0.010587
  1 S  8.04800000E+02  0.036879
  1 S  2.91300000E+02  0.107479
  1 S  1.13600000E+02  0.247936
  1 S  4.67500000E+01  0.390927
  1 S  1.98200000E+01  0.302026
  1 S  7.70800000E+00  0.055924
  1 S  3.34000000E+00 -0.004024
  1 S  1.40200000E+00  0.002580
  1 S  2.07000000E-01  0.000608

  2 S  2.54900000E+05 -0.000017
  2 S  3.81900000E+04 -0.000129
  2 S  8.69000000E+03 -0.000679
  2 S  2.46200000E+03 -0.002841
  2 S  8.04800000E+02 -0.010055
  2 S  2.91300000E+02 -0.030577
  2 S  1.13600000E+02 -0.077726
  2 S  4.67500000E+01 -0.154236
  2 S  1.98200000E+01 -0.180368
  2 S  7.70800000E+00  0.079822
  2 S  3.34000000E+00  0.547441
  2 S  1.40200000E+00  0.480119
  2 S  2.07000000E-01 -0.010700

  3 S  2.54900000E+05  0.000004
  3 S  3.81900000E+04  0.000033
  3 S  8.69000000E+03  0.000174
  3 S  2.46200000E+03  0.000728
  3 S  8.04800000E+02  0.002583
  3 S  2.91300000E+02  0.007864
  3 S  1.13600000E+02  0.020216
  3 S  4.67500000E+01  0.040732
  3 S  1.98200000E+01  0.049936
  3 S  7.70800000E+00 -0.024940
  3 S  3.34000000E+00 -0.190350
  3 S  1.40200000E+00 -0.318350
  3 S  2.07000000E-01  0.681180

  4 S  4.38700000E-01  1.000000

  5 S  7.94400000E-02  1.000000

  6 S  3.30000000E-02  1.000000

  7 P  4.81500000E+02  0.001920
  7 P  1.13900000E+02  0.015355
  7 P  3.62300000E+01  0.071399
  7 P  1.33400000E+01  0.213052
  7 P  5.25200000E+00  0.390354
  7 P  2.12000000E+00  0.393721
  7 P  2.52800000E-01  0.003956

  8 P  4.81500000E+02 -0.000405
  8 P  1.13900000E+02 -0.003359
  8 P  3.62300000E+01 -0.015286
  8 P  1.33400000E+01 -0.048922
  8 P  5.25200000E+00 -0.085501
  8 P  2.12000000E+00 -0.112137
  8 P  2.52800000E-01  0.551919

  9 P  8.56100000E-01  1.000000

 10 P  7.88900000E-02  1.000000

 11 P  2.37000000E-02  1.000000

 12 D  1.59000000E-01  1.000000

 13 D  4.81000000E-01  1.000000

 14 D  5.56000000E-02  1.000000

 15 F  3.36000000E-01  1.000000

 16 F  1.25000000E-01  1.000000



 Summary of "ao basis" -> "ao basis" (cartesian)
 ------------------------------------------------------------------------------
       Tag                 Description            Shells   Functions and Types
 ---------------- ------------------------------  ------  ---------------------
 Si                       aug-cc-pVTZ               16       59   6s5p3d2f




 Summary of "ao basis" -> "ao basis" (cartesian)
 ------------------------------------------------------------------------------
       Tag                 Description            Shells   Functions and Types
 ---------------- ------------------------------  ------  ---------------------
 Si                       aug-cc-pVTZ               16       59   6s5p3d2f




                         Geometry "geometry" -> "geometry"
                         ---------------------------------

 Output coordinates in angstroms (scale by  1.889725989 to convert to a.u.)

  No.       Tag          Charge          X              Y              Z
 ---- ---------------- ---------- -------------- -------------- --------------
    1 Si                  14.0000     0.00000000     0.00000000     0.00000000

      Atomic Mass 
      ----------- 

      Si                27.976930


 Effective nuclear repulsion energy (a.u.)       0.0000000000

            Nuclear Dipole moment (a.u.) 
            ----------------------------
        X                 Y               Z
 ---------------- ---------------- ----------------
     0.0000000000     0.0000000000     0.0000000000


                      Basis "ao basis" -> "ao basis" (cartesian)
                      -----
  Si (Silicon)
  ------------
            Exponent  Coefficients 
       -------------- ---------------------------------------------------------
  1 S  2.54900000E+05  0.505343
  1 S  3.81900000E+04  0.945273
  1 S  8.69000000E+03  1.632445
  1 S  2.46200000E+03  2.636824
  1 S  8.04800000E+02  3.971003
  1 S  2.91300000E+02  5.400545
  1 S  1.13600000E+02  6.147973
  1 S  4.67500000E+01  4.980701
  1 S  1.98200000E+01  2.021765
  1 S  7.70800000E+00  0.184357
  1 S  3.34000000E+00 -0.007085
  1 S  1.40200000E+00  0.002369
  1 S  2.07000000E-01  0.000133

  2 S  2.54900000E+05 -0.138957
  2 S  3.81900000E+04 -0.260090
  2 S  8.69000000E+03 -0.449836
  2 S  2.46200000E+03 -0.731127
  2 S  8.04800000E+02 -1.118618
  2 S  2.91300000E+02 -1.587396
  2 S  1.13600000E+02 -1.991256
  2 S  4.67500000E+01 -2.030258
  2 S  1.98200000E+01 -1.247431
  2 S  7.70800000E+00  0.271867
  2 S  3.34000000E+00  0.995810
  2 S  1.40200000E+00  0.455448
  2 S  2.07000000E-01 -0.002418

  3 S  2.54900000E+05  0.055864
  3 S  3.81900000E+04  0.104485
  3 S  8.69000000E+03  0.180941
  3 S  2.46200000E+03  0.293784
  3 S  8.04800000E+02  0.450952
  3 S  2.91300000E+02  0.640557
  3 S  1.13600000E+02  0.812648
  3 S  4.67500000E+01  0.841311
  3 S  1.98200000E+01  0.541906
  3 S  7.70800000E+00 -0.133285
  3 S  3.34000000E+00 -0.543309
  3 S  1.40200000E+00 -0.473860
  3 S  2.07000000E-01  0.241504

  4 S  4.38700000E-01  0.384181

  5 S  7.94400000E-02  0.106645

  6 S  3.30000000E-02  0.055182

  7 P  4.81500000E+02  6.701335
  7 P  1.13900000E+02  8.839406
  7 P  3.62300000E+01  9.818408
  7 P  1.33400000E+01  8.403174
  7 P  5.25200000E+00  4.801506
  7 P  2.12000000E+00  1.558193
  7 P  2.52800000E-01  0.001097

  8 P  4.81500000E+02 -2.356448
  8 P  1.13900000E+02 -3.222413
  8 P  3.62300000E+01 -3.503088
  8 P  1.33400000E+01 -3.215651
  8 P  5.25200000E+00 -1.752660
  8 P  2.12000000E+00 -0.739589
  8 P  2.52800000E-01  0.255075

  9 P  8.56100000E-01  1.173804

 10 P  7.88900000E-02  0.059596

 11 P  2.37000000E-02  0.013255

 12 D  1.59000000E-01  0.065895

 13 D  4.81000000E-01  0.457260

 14 D  5.56000000E-02  0.010478

 15 F  3.36000000E-01  0.126537

 16 F  1.25000000E-01  0.013677



    Basis function labels
    ---------------------
       No.  Atm El Type
       ---  --- -- ----
        1    1 Si s          
        2    1 Si s          
        3    1 Si s          
        4    1 Si s          
        5    1 Si s          
        6    1 Si s          
        7    1 Si px         
        8    1 Si py         
        9    1 Si pz         
       10    1 Si px         
       11    1 Si py         
       12    1 Si pz         
       13    1 Si px         
       14    1 Si py         
       15    1 Si pz         
       16    1 Si px         
       17    1 Si py         
       18    1 Si pz         
       19    1 Si px         
       20    1 Si py         
       21    1 Si pz         
       22    1 Si dxx        
       23    1 Si dxy        
       24    1 Si dxz        
       25    1 Si dyy        
       26    1 Si dyz        
       27    1 Si dzz        
       28    1 Si dxx        
       29    1 Si dxy        
       30    1 Si dxz        
       31    1 Si dyy        
       32    1 Si dyz        
       33    1 Si dzz        
       34    1 Si dxx        
       35    1 Si dxy        
       36    1 Si dxz        
       37    1 Si dyy        
       38    1 Si dyz        
       39    1 Si dzz        
       40    1 Si fxxx       
       41    1 Si fxxy       
       42    1 Si fxxz       
       43    1 Si fxyy       
       44    1 Si fxyz       
       45    1 Si fxzz       
       46    1 Si fyyy       
       47    1 Si fyyz       
       48    1 Si fyzz       
       49    1 Si fzzz       
       50    1 Si fxxx       
       51    1 Si fxxy       
       52    1 Si fxxz       
       53    1 Si fxyy       
       54    1 Si fxyz       
       55    1 Si fxzz       
       56    1 Si fyyy       
       57    1 Si fyyz       
       58    1 Si fyzz       
       59    1 Si fzzz       
  int_init: cando_txs set to always be  F

 Schwarz integral screening summary 
 ---------------------------------- 

        No. of atom pairs =       1
       No. of shell pairs =     136

 Atomic screening 

   value      no.     value      no.     value      no.     value      no.   
  -------- ------    -------- ------    -------- ------    -------- ------   
  0.00D+00      0    1.00D-13      0    1.00D-12      0    1.00D-11      0
  1.00D-10      0    1.00D-09      0    1.00D-08      0    1.00D-07      0
  1.00D-06      0    1.00D-05      0    1.00D-04      0    1.00D-03      0
  1.00D-02      0    1.00D-01      0    1.00D+00      1    1.00D+01      0


 Shell screening 

   value      no.     value      no.     value      no.     value      no.   
  -------- ------    -------- ------    -------- ------    -------- ------   
  0.00D+00      0    1.00D-13      0    1.00D-12      0    1.00D-11      0
  1.00D-10      0    1.00D-09      0    1.00D-08      0    1.00D-07      0
  1.00D-06      0    1.00D-05      0    1.00D-04      2    1.00D-03      4
  1.00D-02      7    1.00D-01     56    1.00D+00     67    1.00D+01      0


  Caching 1-el integrals 
  atom                     1  - neighbor  & S                     1   10.000000000000000       exp AB    2.3700000000000016E-002   2.3700000000000016E-002
 zmins =     0.023700000    0.023700000 lprod =   2 range =        22.66 acc   0.10D-07
 sh     0.000000000
  Center:                     1  Radial Pts. & Wghts. 
    1        0.000003063           8.6233341E-17
    2        0.000024506           2.2075890E-14
    3        0.000082709           5.6579166E-13
    4        0.000196052           5.6517442E-12
    5        0.000382920           3.3689075E-11
    6        0.000661701           1.4487004E-10
    7        0.001050790           4.9728807E-10
    8        0.001568592           1.4474948E-09
    9        0.002233527           3.7147659E-09
   10        0.003064030           8.6319534E-09
   11        0.004078562           1.8509487E-08
   12        0.005295609           3.7142862E-08
   13        0.006733691           7.0497877E-08
   14        0.008411368           1.2761193E-07
   15        0.010347249           2.2175399E-07
   16        0.012559995           3.7189030E-07
   17        0.015068331           6.0450771E-07
   18        0.017891052           9.5585174E-07
   19        0.021047036           1.4746418E-06
   20        0.024555251           2.2253321E-06
   21        0.028434765           3.2919933E-06
   22        0.032704762           4.7828971E-06
   23        0.037384549           6.8358940E-06
   24        0.042493569           9.6246815E-06
   25        0.048051420           1.3366073E-05
   26        0.054077861           1.8328385E-05
   27        0.060592834           2.4841069E-05
   28        0.067616476           3.3305745E-05
   29        0.075169135           4.4208769E-05
   30        0.083271392           5.8135541E-05
   31        0.091944075           7.5786719E-05
   32        0.101208278           9.7996563E-05
   33        0.111085385           1.2575364E-04
   34        0.121597090           1.6022418E-04
   35        0.132765418           2.0277828E-04
   36        0.144612751           2.5501942E-04
   37        0.157161851           3.1881754E-04
   38        0.170435890           3.9634608E-04
   39        0.184458471           4.9012351E-04
   40        0.199253666           6.0305973E-04
   41        0.214846040           7.3850803E-04
   42        0.231260688           9.0032308E-04
   43        0.248523266           1.0929258E-03
   44        0.266660032           1.3213756E-03
   45        0.285697880           1.5914516E-03
   46        0.305664383           1.9097425E-03
   47        0.326587837           2.2837478E-03
   48        0.348497306           2.7219902E-03
   49        0.371422670           3.2341415E-03
   50        0.395394679           3.8311636E-03
   51        0.420445006           4.5254650E-03
   52        0.446606306           5.3310777E-03
   53        0.473912279           6.2638533E-03
   54        0.502397735           7.3416836E-03
   55        0.532098667           8.5847480E-03
   56        0.563052325           1.0015790E-02
   57        0.595297301           1.1660429E-02
   58        0.628873607           1.3547507E-02
   59        0.663822779           1.5709487E-02
   60        0.700187969           1.8182886E-02
   61        0.738014056           2.1008781E-02
   62        0.777347760           2.4233366E-02
   63        0.818237767           2.7908587E-02
   64        0.860734861           3.2092858E-02
   65        0.904892074           3.6851871E-02
   66        0.950764835           4.2259519E-02
   67        0.998411147           4.8398934E-02
   68        1.047891764           5.5363678E-02
   69        1.099270397           6.3259087E-02
   70        1.152613926           7.2203817E-02
   71        1.207992638           8.2331598E-02
   72        1.265480485           9.3793248E-02
   73        1.325155367           1.0675898E-01
   74        1.387099437           1.2142104E-01
   75        1.451399441           1.3799678E-01
   76        1.518147092           1.5673216E-01
   77        1.587439473           1.7790578E-01
   78        1.659379492           2.0183366E-01
   79        1.734076377           2.2887463E-01
   80        1.811646231           2.5943675E-01
   81        1.892212638           2.9398470E-01
   82        1.975907347           3.3304849E-01
   83        2.062871030           3.7723366E-01
   84        2.153254127           4.2723328E-01
   85        2.247217794           4.8384216E-01
   86        2.344934972           5.4797363E-01
   87        2.446591585           6.2067956E-01
   88        2.552387899           7.0317417E-01
   89        2.662540055           7.9686265E-01
   90        2.777281817           9.0337550E-01
   91        2.896866570           1.0246101E+00
   92        3.021569596           1.1627811E+00
   93        3.151690700           1.3204817E+00
   94        3.287557236           1.5007595E+00
   95        3.429527609           1.7072087E+00
   96        3.577995364           1.9440854E+00
   97        3.733393953           2.2164512E+00
   98        3.896202347           2.5303532E+00
   99        4.066951669           2.8930512E+00
  100        4.246233074           3.3133079E+00
  101        4.434707182           3.8017603E+00
  102        4.633115431           4.3714015E+00
  103        4.842293850           5.0382092E+00
  104        5.063189896           5.8219759E+00
  105        5.296883208           6.7474164E+00
  106        5.544611431           7.8456625E+00
  107        5.807802663           9.1563079E+00
  108        6.088116695           1.0730244E+01
  109        6.387498033           1.2633658E+01
  110        6.708245027           1.4953762E+01
  111        7.053101336           1.7807169E+01
  112        7.425378994           2.1352408E+01
  113        7.829127165           2.5809077E+01
  114        8.269368582           3.1487998E+01
  115        8.752439108           3.8840227E+01
  116        9.286489602           4.8539736E+01
  117        9.882253100           6.1629155E+01
  118       10.554265769           7.9790460E+01
  119       11.322907435           1.0588089E+02
  120       12.218025742           1.4508186E+02
  121       13.285894538           2.0762768E+02
  122       14.604035933           3.1624274E+02
  123       16.317777313           5.3082015E+02
  124       18.753384134           1.0603263E+03
  125       22.951943524           3.2023246E+03
     irreducible set of Lebedev Angular points ;
  0.009523809523810  1.000000000000000  0.000000000000000  0.000000000000000
  0.032142857142857  0.577350269189626  0.577350269189626  0.577350269189626
  0.028571428571429  0.459700843380983  0.000000000000000  0.888073833977115
   total no. of   reducible points:  38; test:  1.00000000
  0.012698412698413  1.000000000000000  0.000000000000000  0.000000000000000
  0.022574955908289  0.707106781186547  0.707106781186547  0.000000000000000
  0.021093750000000  0.577350269189626  0.577350269189626  0.577350269189626
  0.020173335537919  0.301511344577764  0.301511344577764  0.904534033733291
   total no. of   reducible points:  50; test:  1.00000000
  0.000513067179734  1.000000000000000  0.000000000000000  0.000000000000000
  0.016604069565742  0.707106781186547  0.707106781186547  0.000000000000000
 -0.029586038961039  0.577350269189626  0.577350269189626  0.577350269189626
  0.026576207082159  0.480384461415261  0.480384461415261  0.733799385705343
  0.016522170993716  0.320772648980776  0.000000000000000  0.947156221362588
   total no. of   reducible points:  74; test:  1.00000000
  0.011544011544012  1.000000000000000  0.000000000000000  0.000000000000000
  0.011943909085856  0.577350269189626  0.577350269189626  0.577350269189626
  0.011110555710603  0.369602846454150  0.369602846454150  0.852518311701268
  0.011876501294537  0.694354006602666  0.694354006602666  0.189063552885395
  0.011812303746904  0.374243039090341  0.000000000000000  0.927330657151172
   total no. of   reducible points:  86; test:  1.00000000
  0.003828270494937  1.000000000000000  0.000000000000000  0.000000000000000
  0.009793737512488  0.577350269189626  0.577350269189626  0.577350269189626
  0.008211737283191  0.185115635344736  0.185115635344736  0.965124035086594
  0.009942814891178  0.690421048382292  0.690421048382292  0.215957291845848
  0.009595471336071  0.395689473055942  0.395689473055942  0.828769981252592
  0.009694996361663  0.478369028812150  0.000000000000000  0.878158910604066
   total no. of   reducible points: 110; test:  1.00000000
  0.000599631368862  1.000000000000000  0.000000000000000  0.000000000000000
  0.007372999718621  0.707106781186547  0.707106781186547  0.000000000000000
  0.007210515360144  0.577350269189626  0.577350269189626  0.577350269189626
  0.007116355493118  0.676441040011426  0.676441040011426  0.291298882209527
  0.006753829486314  0.417496122796545  0.417496122796545  0.807089818359583
  0.007574394159054  0.157467667203908  0.157467667203908  0.974888643677173
  0.006991087353303  0.140355381171318  0.449332832326956  0.882270011260323
   total no. of   reducible points: 146; test:  1.00000000
  0.005544842902037  1.000000000000000  0.000000000000000  0.000000000000000
  0.006071332770671  0.707106781186547  0.707106781186547  0.000000000000000
  0.006383674773515  0.577350269189626  0.577350269189626  0.577350269189626
  0.005183387587748  0.255125262111413  0.255125262111413  0.932642590312691
  0.006317929009814  0.674360146036277  0.674360146036277  0.300793595137701
  0.006201670006589  0.431891069671941  0.431891069671941  0.791795559393492
  0.005477143385137  0.261393136033599  0.000000000000000  0.965232421976448
  0.005968383987681  0.499045316179604  0.144663074432512  0.854415804684659
   total no. of   reducible points: 170; test:  1.00000000
  0.001782340447245  1.000000000000000  0.000000000000000  0.000000000000000
  0.005716905949977  0.707106781186547  0.707106781186547  0.000000000000000
  0.005573383178849  0.577350269189626  0.577350269189626  0.577350269189626
  0.005608704082588  0.671297344269523  0.671297344269523  0.314196994182586
  0.005158237711805  0.289246562757544  0.289246562757544  0.912509096867474
  0.005518771467274  0.444693317871744  0.444693317871744  0.777493219314767
  0.004106777028169  0.129933544765007  0.129933544765007  0.982972302707253
  0.005051846064615  0.345770219761128  0.000000000000000  0.938319218137592
  0.005530248916233  0.159041710538353  0.836036015482459  0.525118572443642
   total no. of   reducible points: 194; test:  1.00000000
 -0.055226399197273  1.000000000000000  0.000000000000000  0.000000000000000
  0.004450274607445  0.577350269189626  0.577350269189626  0.577350269189626
  0.004496841067921  0.449204468739761  0.449204468739761  0.772289253148364
  0.005049153450479  0.252041949021020  0.252041949021020  0.934317778845812
  0.003976408018052  0.698190665844724  0.698190665844724  0.158302205463478
  0.004401400650381  0.658740524346096  0.658740524346096  0.363485684956727
  0.017245443505444  0.040385440500977  0.040385440500977  0.998367683967727
  0.004231083095357  0.582384230971558  0.000000000000000  0.812913653173365
  0.005198069864064  0.354587739051869  0.000000000000000  0.935022745880593
  0.004695720972569  0.227218180899819  0.486466153588665  0.843636521068894
   total no. of   reducible points: 230; test:  1.00000000
 -0.001313769127327  1.000000000000000  0.000000000000000  0.000000000000000
 -0.002522728704859  0.707106781186547  0.707106781186547  0.000000000000000
  0.004186853881701  0.577350269189626  0.577350269189626  0.577350269189626
  0.005315167977811  0.703937339158548  0.703937339158548  0.094575076403713
  0.004047142377086  0.101252624857241  0.101252624857241  0.989694807462905
  0.004112482394407  0.464744872642054  0.464744872642054  0.753673939250816
  0.003595584899759  0.327742065497163  0.327742065497163  0.886098344997499
  0.004256131351428  0.662033866369997  0.662033866369997  0.351315128564633
  0.004229582700647  0.850650808352040  0.000000000000000  0.525731112119134
  0.004080914225781  0.323348454269290  0.115311201100970  0.939227929749916
  0.004071467593831  0.231479015871260  0.524493924092236  0.819343388819120
   total no. of   reducible points: 266; test:  1.00000000
  0.000854591172513  1.000000000000000  0.000000000000000  0.000000000000000
  0.003599119285026  0.577350269189626  0.577350269189626  0.577350269189626
  0.003449788424306  0.351564034557011  0.351564034557011  0.867643624544083
  0.003604822601420  0.656632941021961  0.656632941021961  0.371034178384821
  0.003576729661743  0.472905413258100  0.472905413258100  0.743452042987556
  0.002352101413689  0.096183085226148  0.096183085226148  0.990705621379408
  0.003108953122414  0.221964523629418  0.221964523629418  0.949454317226443
  0.003650045807677  0.701176641608955  0.701176641608955  0.129238672710514
  0.002982344963172  0.264415288706066  0.000000000000000  0.964408914879206
  0.003600820932216  0.571895589187896  0.000000000000000  0.820326419827759
  0.003571540554273  0.251003475177047  0.800072749407395  0.544867737258077
  0.003392312205006  0.123354853258333  0.412772408316853  0.902442529533000
   total no. of   reducible points: 302; test:  1.00000000
  0.003006796749454  1.000000000000000  0.000000000000000  0.000000000000000
  0.003050627745651  0.577350269189626  0.577350269189626  0.577350269189626
  0.001621104600289  0.706896546391232  0.706896546391232  0.024383301669356
  0.003005701484902  0.479468262571203  0.479468262571203  0.734996850587746
  0.002990992529654  0.192753315487802  0.192753315487802  0.962129055136014
  0.002982170644108  0.693035796132712  0.693035796132712  0.198501311223365
  0.002721564237311  0.360830211552009  0.360830211552009  0.860001812127547
  0.003033513795811  0.649848616149617  0.649848616149617  0.394199888605839
  0.003007949555219  0.193294501323034  0.000000000000000  0.981140782843257
  0.002881964603055  0.380049491989930  0.000000000000000  0.924966152698679
  0.002958357626536  0.289955882549957  0.793453785658232  0.535123047718276
  0.003036020026407  0.096841214551040  0.828080150668686  0.552182074349399
  0.002832187403926  0.183343464704166  0.907465826530513  0.378009189874487
   total no. of   reducible points: 350; test:  1.00000000
  0.000526589796822  1.000000000000000  0.000000000000000  0.000000000000000
  0.002548219972003  0.707106781186547  0.707106781186547  0.000000000000000
  0.002512317418927  0.577350269189626  0.577350269189626  0.577350269189626
  0.002530403801186  0.690934630750911  0.690934630750911  0.212646824707552
  0.002014279020919  0.177483605460916  0.177483605460916  0.967987158791473
  0.002501725168403  0.491434263778475  0.491434263778475  0.719016501040843
  0.002513267174598  0.645666470742426  0.645666470742426  0.407712664897770
  0.002302694782227  0.286128901030764  0.286128901030764  0.914472801120872
  0.001462495621595  0.075680843671780  0.075680843671780  0.994255912631278
  0.002445373437313  0.392725976336800  0.392725976336800  0.831584400419232
  0.002417442375639  0.881813287779429  0.000000000000000  0.471598691151316
  0.001910951282180  0.977642811118265  0.000000000000000  0.210272522857307
  0.002416930044325  0.205482369640304  0.868946032287241  0.450233038258263
  0.002512236854563  0.590515704892527  0.799927854385729  0.106801826075805
  0.002496644054553  0.555015236107681  0.771746262691590  0.310428403516654
  0.002236607760438  0.937180985855372  0.334436314534346  0.099217696364292
   total no. of   reducible points: 434; test:  1.00000000
  0.000309512129531  1.000000000000000  0.000000000000000  0.000000000000000
  0.001852379698597  0.577350269189626  0.577350269189626  0.577350269189626
  0.001871790639278  0.704095493822747  0.704095493822747  0.092190407076898
  0.001858812585438  0.680774406645524  0.680774406645524  0.270356088359165
  0.001852028828296  0.637254693925875  0.637254693925875  0.433373868777154
  0.001846715956151  0.504441970780036  0.504441970780036  0.700768575373573
  0.001818471778163  0.421576178401097  0.421576178401097  0.802836877335274
  0.001749564657281  0.331792073647212  0.331792073647212  0.883078727934133
  0.001617210647254  0.238473670142189  0.238473670142189  0.941414158220403
  0.001384737234852  0.145903644915776  0.145903644915776  0.978480583762694
  0.000976433116505  0.060950341155072  0.060950341155072  0.996278129754016
  0.001857161196774  0.611684344200988  0.000000000000000  0.791101929626902
  0.001705153996396  0.396475534819986  0.000000000000000  0.918045287711454
  0.001300321685886  0.172478200990772  0.000000000000000  0.985013335028002
  0.001842866472905  0.561026380862206  0.351828092773352  0.749310611904116
  0.001802658934377  0.474239284255198  0.263471665593795  0.840047488359050
  0.001849830560444  0.598412649788538  0.181664084036021  0.780320742479920
  0.001713904507107  0.379103540769556  0.172079522565688  0.909213475092374
  0.001555213603397  0.277867319058624  0.082130215819325  0.957102074310073
  0.001802239128009  0.503356427107512  0.089992058420749  0.859379855890721
   total no. of   reducible points: 590; test:  1.00000000
  0.000219294208818  1.000000000000000  0.000000000000000  0.000000000000000
  0.001436433617319  0.707106781186547  0.707106781186547  0.000000000000000
  0.001421940344336  0.577350269189626  0.577350269189626  0.577350269189626
  0.000679812351105  0.050872044105024  0.050872044105024  0.997408677652823
  0.000991318423529  0.122819879017883  0.122819879017883  0.984799753572301
  0.001180207833239  0.202689081440879  0.202689081440879  0.958036675983391
  0.001296599602081  0.284774515646429  0.284774515646429  0.915317950483155
  0.001365871427428  0.365671907897803  0.365671907897803  0.855901928697887
  0.001402988604775  0.442826488671347  0.442826488671347  0.779621319527635
  0.001418645563596  0.514061962724974  0.514061962724974  0.686644447264154
  0.001421376741852  0.630640121916680  0.630640121916680  0.452311920313658
  0.001423996475491  0.671688333202261  0.671688333202261  0.312521305001653
  0.001431554042179  0.697979268533688  0.697979268533688  0.160155803498829
  0.000925440149987  0.144686567419531  0.000000000000000  0.989477537495599
  0.001250239995054  0.339026347541122  0.000000000000000  0.940776878793759
  0.001394365843329  0.533580465126351  0.000000000000000  0.845749305193653
  0.001127089094672  0.069440243933494  0.235518789424233  0.969385863498432
  0.001345753760911  0.226900410952946  0.410218247404573  0.883310360522113
  0.001424957283317  0.080255746077753  0.621430241748161  0.779348105702661
  0.001261523341238  0.146799952789657  0.324528434571739  0.934414827052402
  0.001392547106053  0.157150776982473  0.522448218969663  0.838064133458312
  0.001418761677878  0.236570299315725  0.601754663408956  0.762840624604670
  0.001338366684480  0.077148158667657  0.434657551614116  0.897285336132833
  0.001393700862676  0.306293666621073  0.490882658903762  0.815609223203975
  0.001415914757467  0.382247737952479  0.564876814909950  0.731300793659766
   total no. of   reducible points: 770; test:  1.00000000
  0.000143829419053  1.000000000000000  0.000000000000000  0.000000000000000
  0.001125772288287  0.577350269189626  0.577350269189626  0.577350269189626
  0.000494802934195  0.042929635453413  0.042929635453413  0.998155345023847
  0.000735799010913  0.105142685408640  0.105142685408640  0.988883224354686
  0.000888913277130  0.175002486762309  0.175002486762309  0.968890220434707
  0.000988834783892  0.247765337965026  0.247765337965026  0.936602730407163
  0.001053299681709  0.320656712395596  0.320656712395596  0.891267942647606
  0.001092778807015  0.391652074984998  0.391652074984998  0.832596723702352
  0.001114389394063  0.459082587418762  0.459082587418762  0.760582905315251
  0.001123724788052  0.521456388841586  0.521456388841586  0.675400969108414
  0.001125239325244  0.625317024465420  0.625317024465420  0.466858905695743
  0.001126153271816  0.663792674452317  0.663792674452317  0.344613654237438
  0.001130286931124  0.691041039849830  0.691041039849830  0.211954151850184
  0.001134986534364  0.705290700745776  0.705290700745776  0.071624401449956
  0.000682336792711  0.123668676265799  0.000000000000000  0.992323565431490
  0.000945415816045  0.294077711446839  0.000000000000000  0.955781512496548
  0.001074429975386  0.469775384920765  0.000000000000000  0.882785980701182
  0.001129300086569  0.633456324113957  0.000000000000000  0.773778447257375
  0.000843688450090  0.059740486141813  0.202912875277752  0.977372722845310
  0.001075255720449  0.137576040847364  0.460262194248405  0.877058461865803
  0.001108577236864  0.339101652633629  0.503067399966204  0.794942299964208
  0.000956647532378  0.127167519143982  0.281760642244213  0.951020169374390
  0.001080663250717  0.269312074041351  0.433156129172016  0.860143461601762
  0.001126797131196  0.141978645260192  0.625616735858081  0.767102186220558
  0.001022568715358  0.067092846007383  0.379839521685916  0.922616110730809
  0.001108960267713  0.070577381832562  0.551750542142352  0.831017552413474
  0.001122790653436  0.278388847788215  0.602961915615919  0.747620610834086
  0.001032401847117  0.197957893891741  0.358960632958910  0.912118378409121
  0.001107249382284  0.208730706110327  0.534866643813548  0.818748536281022
  0.001121780048520  0.405512213787284  0.567499754607437  0.716591845467024
   total no. of   reducible points: 974; test:  1.00000000
  0.000110518923327  1.000000000000000  0.000000000000000  0.000000000000000
  0.000920523273809  0.707106781186547  0.707106781186547  0.000000000000000
  0.000913315978644  0.577350269189626  0.577350269189626  0.577350269189626
  0.000369042189802  0.037126364496571  0.037126364496571  0.998620681799919
  0.000560399092868  0.091400604122622  0.091400604122622  0.991610739722014
  0.000686529762928  0.153107785246991  0.153107785246991  0.976276606394685
  0.000772033855115  0.218092889166061  0.218092889166061  0.951247067480579
  0.000830154595889  0.283987453220018  0.283987453220018  0.915806886208668
  0.000868669255018  0.349117760096376  0.349117760096376  0.869616915181954
  0.000892707628585  0.412143146144431  0.412143146144431  0.812573722299916
  0.000906082023857  0.471899362714913  0.471899362714913  0.744729469632107
  0.000911977725494  0.527314545284234  0.527314545284234  0.666242253736104
  0.000912872013860  0.620947533244402  0.620947533244402  0.478380938076952
  0.000913071493569  0.656972271185729  0.656972271185729  0.369830866459426
  0.000915287378455  0.684178830907014  0.684178830907014  0.252583955700718
  0.000918743627432  0.701260433012363  0.701260433012363  0.128326186659723
  0.000517697731297  0.107238221547817  0.000000000000000  0.994233354821322
  0.000733114368210  0.258206895949697  0.000000000000000  0.966089643296119
  0.000846323283638  0.417275295530672  0.000000000000000  0.908780131681911
  0.000903112269425  0.570036691179250  0.000000000000000  0.821619237061433
  0.000648577845316  0.982798601826395  0.177177402261533  0.052106394770113
  0.000743503091098  0.962424923032623  0.247571646342629  0.111564095715648
  0.000799852789184  0.940200799412881  0.335461628906649  0.059058888532354
  0.000810173149747  0.932082204014320  0.317361524661198  0.174655167757863
  0.000848338957459  0.904367419939330  0.409026842708536  0.121723505109599
  0.000855629925731  0.891240756007475  0.385429115066922  0.239027847938172
  0.000880320867974  0.867643562846271  0.493222118485128  0.062662506241542
  0.000881104818243  0.858197998604162  0.478532067592243  0.185750519454734
  0.000885028234127  0.839675362404986  0.450742259315706  0.302946697352898
  0.000902134229904  0.816528856402219  0.563212302076210  0.126777480068428
  0.000901009167711  0.801546937078353  0.543430356969390  0.249411216236224
  0.000902269293843  0.777356306907035  0.512351848641987  0.364983226059765
  0.000915801617469  0.766162121390039  0.639427963474910  0.064245492242208
  0.000913157800319  0.755358414353351  0.626980550902439  0.190601822277923
  0.000910781357948  0.734430575755950  0.603116169309631  0.311227594714961
  0.000910576025897  0.704383718402177  0.569370249846844  0.423864478152234
   total no. of   reducible points:1202; test:  1.00000000
  0.000077771607433  1.000000000000000  0.000000000000000  0.000000000000000
  0.000755764641300  0.577350269189626  0.577350269189626  0.577350269189626
  0.000284163380609  0.032292906634139  0.032292906634139  0.998956623864238
  0.000437441912705  0.080367332714622  0.080367332714622  0.993520097262594
  0.000541717474087  0.135428996053165  0.135428996053165  0.981487633165117
  0.000614800089136  0.193896386111443  0.193896386111443  0.961669580940275
  0.000666439448580  0.253734371501127  0.253734371501127  0.933401166400522
  0.000702503935692  0.313525143475257  0.313525143475257  0.896328047546008
  0.000726851178925  0.372155833937534  0.372155833937534  0.850294108254619
  0.000742263753421  0.428680957519570  0.428680957519570  0.795276853253136
  0.000750954503584  0.482251012828299  0.482251012828299  0.731346649169981
  0.000754853505772  0.532067933356626  0.532067933356626  0.658640591360127
  0.000755408896977  0.617299819539427  0.617299819539427  0.487731345715221
  0.000755314717444  0.651067984912748  0.651067984912748  0.390155043595885
  0.000756476765329  0.677731525168736  0.677731525168736  0.285236672931301
  0.000758799180852  0.696310941064874  0.696310941064874  0.174075117999957
  0.000760826183203  0.705893500983175  0.705893500983175  0.058555363028785
  0.000402168044787  0.995554619409186  0.000000000000000  0.094185985013862
  0.000580487179395  0.973411590179421  0.000000000000000  0.229063039585986
  0.000679215195595  0.927569373238863  0.000000000000000  0.373650983980055
  0.000733674121129  0.856802242279510  0.000000000000000  0.515645147000147
  0.000758186630099  0.762349555371937  0.000000000000000  0.647165477620840
  0.000753825785980  0.570752290889222  0.438702803988950  0.694104943230444
  0.000748351724705  0.519646338840308  0.385890841476262  0.762270254565011
  0.000737176366111  0.464633753121535  0.330193737234385  0.821637128756598
  0.000718344889576  0.406390169755769  0.272542357356378  0.872105322408083
  0.000689581552982  0.345632946664309  0.213951023749525  0.913653558859526
  0.000648010580179  0.283139512105033  0.155592230978665  0.946373644151191
  0.000589755889659  0.219768202292533  0.098928789796861  0.970523071240677
  0.000509570884925  0.156469609865035  0.045986429106755  0.986611630545015
  0.000753690642891  0.602735667372129  0.337662514017343  0.722975616397235
  0.000747250596558  0.549603232025510  0.282230130972799  0.786309379645309
  0.000734301713228  0.492170775523457  0.224863234259254  0.840954489612314
  0.000713087158218  0.430942299859848  0.166622472345648  0.886862833757808
  0.000681702203211  0.366410818231367  0.108696490182217  0.924082347686118
  0.000638094114560  0.299018905775844  0.052519897841201  0.952800794667682
  0.000755038137792  0.626872401314500  0.229752365755002  0.744476220506856
  0.000747864664014  0.570732414483461  0.172308060709380  0.802853936449496
  0.000733591872060  0.509636090196037  0.114023846539051  0.852801042441985
  0.000711012052766  0.443872993831246  0.056115220958825  0.894330949550573
  0.000757136397869  0.641997847108239  0.116417442314087  0.757816431224233
  0.000748990832908  0.581721806180261  0.057975895314452  0.811319009870262
   total no. of   reducible points:1454; test:  1.00000000
  qrot: 

              1        2        3      
    1    1.0000   0.0000   0.0000
    2    0.0000   1.0000   0.0000
    3    0.0000   0.0000   1.0000
  me                     0   done genpts
  me                     1   done genpts
  me                     2   done genpts
  me                     3   done genpts
  me                     5   done genpts
  me                     6   done genpts
  me                     4   done genpts
  me                     7   done genpts
  me                     0   done uprt
  me                     1   done uprt
  me                     2   done uprt
  me                     3   done uprt
  me                     4   done uprt
  me                     5   done uprt
  me                     6   done uprt
  me                     7   done uprt
  me                     0  done mem
  me                     1  done mem
  me                     2  done mem
  me                     3  done mem
  me                     4  done mem
  me                     5  done mem
  me                     6  done mem
  me                     7  done mem
  dftinpanae: itol2e                     8  iaoacc                    14  tol_rho    1.0000000000000000E-010

            General Information
            -------------------
          SCF calculation type: DFT
          Wavefunction type:  spin polarized.
          No. of atoms     :     1
          No. of electrons :    14
           Alpha electrons :     8
            Beta electrons :     6
          Charge           :     0
          Spin multiplicity:     3
          Use of symmetry is: off; symmetry adaption is: off
          Maximum number of iterations:  50
          AO basis - number of functions:    59
                     number of shells:    16
          Convergence on energy requested:  1.00D-06
          Convergence on density requested:  1.00D-05
          Convergence on gradient requested:  5.00D-04

              XC Information
              --------------
                     Hartree-Fock (Exact) Exchange  1.000          
                     LC-wPBE(h)Exchange Functional  1.000          
            Perdew 1991 LDA Correlation Functional  1.000 local    
           PerdewBurkeErnz. Correlation Functional  1.000 non-local

           Range-Separation Parameters        
           ---------------------------
           Alpha           :  0.00
           Beta            :  1.00
           Gamma           :  0.40
           Short-Range HF  :     F

             Grid Information
             ----------------
          Grid used for XC integration:  xfine     
          Radial quadrature: Mura-Knowles        
          Angular quadrature: Lebedev. 
          Tag              B.-S. Rad. Rad. Pts. Rad. Cut. Ang. Pts.
          ---              ---------- --------- --------- ---------
          Si                  1.10      125          12.0      1454
          Grid pruning is: on 
          Number of quadrature shells:   125
          Spatial weights used:  Erf1

          Convergence Information
          -----------------------
          Convergence aids based upon iterative change in 
          total energy or number of iterations. 
          Levelshifting, if invoked, occurs when the 
          HOMO/LUMO gap drops below (HL_TOL):  1.00D-02
          DIIS, if invoked, will attempt to extrapolate 
          using up to (NFOCK): 10 stored Fock matrices.

                    Damping( 0%)  Levelshifting(0.5)       DIIS
                  --------------- ------------------- ---------------
          dE  on:    start            ASAP                start   
          dE off:    2 iters         50 iters            50 iters 


      Screening Tolerance Information
      -------------------------------
          Density screening/tol_rho:  1.00D-10
          AO Gaussian exp screening on grid/accAOfunc:  14
          CD Gaussian exp screening on grid/accCDfunc:  20
          XC Gaussian exp screening on grid/accXCfunc:  20
          Schwarz screening/accCoul:  1.00D-08



                         Geometry "geometry" -> "geometry"
                         ---------------------------------

 Output coordinates in angstroms (scale by  1.889725989 to convert to a.u.)

  No.       Tag          Charge          X              Y              Z
 ---- ---------------- ---------- -------------- -------------- --------------
    1 Si                  14.0000     0.00000000     0.00000000     0.00000000

      Atomic Mass 
      ----------- 

      Si                27.976930


 Effective nuclear repulsion energy (a.u.)       0.0000000000

            Nuclear Dipole moment (a.u.) 
            ----------------------------
        X                 Y               Z
 ---------------- ---------------- ----------------
     0.0000000000     0.0000000000     0.0000000000

  
  CAM type calculations without CDFIT are
  only available with the direct option.
  Forcing Direct SCF
  


     <<<<<<    Before call to DFT_SCF.    >>>>>>
     <<<<<< date:  Apr 24  time: 11:25:09 >>>>>>


 Setting tolerance for linear dependence to 1.00D-05





 Setting tolerance for linear dependence to 1.00D-05


 Setting tolerance for linear dependence to 1.00D-05
 Setting tolerance for linear dependence to 1.00D-05
 Setting tolerance for linear dependence to 1.00D-05
 Setting tolerance for linear dependence to 1.00D-05
 Setting tolerance for linear dependence to 1.00D-05
 Setting tolerance for linear dependence to 1.00D-05
  lindep tolerance =    1.0000000000000001E-005
  lindep tolerance =    1.0000000000000001E-005
  lindep tolerance =    1.0000000000000001E-005
  lindep tolerance =    1.0000000000000001E-005
  lindep tolerance =    1.0000000000000001E-005
  lindep tolerance =    1.0000000000000001E-005
  lindep tolerance =    1.0000000000000001E-005
  lindep tolerance =    1.0000000000000001E-005


     <<<<<<    Before 3c-2e initialize.   >>>>>>
     <<<<<< date:  Apr 24  time: 11:25:09 >>>>>>


 Setting fock-build task_bf   :      -1
                    maxquartet:   10000
                    maxeri    :  129600
                    maxscr    :       0
                    intacc    : 0.0D+00
                    denscreen : T
                    dentol    : 1.0D-06


      Superposition of Atomic Density Guess
      -------------------------------------

 Sum of atomic energies:        -288.84125368

      Non-variational initial energy
      ------------------------------

 Total energy =    -288.623326
 1-e energy   =    -400.502902
 2-e energy   =     111.879577
 HOMO         =      -0.075561
 LUMO         =      -0.075561


 Setting fock-build task_bf   :      -1
                    maxquartet:   10000
                    maxeri    :  129600
                    maxscr    :       0
                    intacc    : 0.0D+00
                    denscreen : T
                    dentol    : 1.0D-06


 Wrote molecular orbitals to ./si.movecs

  WARNING: movecs_in_org=atomic not equal to movecs_in=./si.movecs
   Time after variat. SCF:      1.0

 Setting fock-build task_bf   :      -1
                    maxquartet:   10000
                    maxeri    :  129600
                    maxscr    :       0
                    intacc    : 0.0D+00
                    denscreen : T
                    dentol    : 1.0D-06

   Time prior to 1st pass:      1.0


     <<<<<<      Before SCF iter loop.    >>>>>>
     <<<<<< date:  Apr 24  time: 11:25:10 >>>>>>

           DAMPING=T LEVELSHIFTING=F DIISING=T
          itol2e= 8 iAOacc=12 iXCacc=20


     <<<<<<            calling 1-e int    >>>>>>
     <<<<<< date:  Apr 24  time: 11:25:10 >>>>>>

    Kinetic Matrix Time:          0.0s

           Kinetic energy =    288.387444634151

    Potential Matrix Time:          0.0s


     <<<<<<    Before call to GETVXC.     >>>>>>
     <<<<<< date:  Apr 24  time: 11:25:10 >>>>>>



     <<<<<<    Before call to fock_2e.    >>>>>>
     <<<<<< date:  Apr 24  time: 11:25:10 >>>>>>



     <<<<<<     After call to fock_2e.    >>>>>>
     <<<<<< date:  Apr 24  time: 11:25:10 >>>>>>

    Fock_2e Build Time:          0.3s
  *** grid_quadv0:                    calc_type:                    1
  *** grid_quadv0:                    grid_written: F
  *** grid_quadv0:                    grad: T
  *** grid_quadv0:                    kske: F
  *** grid_quadv0:                    kslap: F
  *** grid_quadv0:                    do_scf: T
  *** grid_quadv0:                    fde_option:                    0
  *** grid_quadv0:                    n_per_rec:                 3070
  *** grid_quadv0:                    calc_type:                    1
  *** grid_quadv0:                    grid_written: F
  *** grid_quadv0:                    grad: T
  *** grid_quadv0:                    kske: F
  *** grid_quadv0:                    kslap: F
  *** grid_quadv0:                    do_scf: T
  *** grid_quadv0:                    fde_option:                    0
  *** grid_quadv0:                    n_per_rec:                 3070
  *** grid_quadv0:                    calc_type:                    1
  *** grid_quadv0:                    grid_written: F
  *** grid_quadv0:                    grad: T
  *** grid_quadv0:                    kske: F
  *** grid_quadv0:                    kslap: F
  *** grid_quadv0:                    do_scf: T
  *** grid_quadv0:                    fde_option:                    0
  *** grid_quadv0:                    n_per_rec:                 3070
  *** grid_quadv0:                    calc_type:                    1
  *** grid_quadv0:                    grid_written: F
  *** grid_quadv0:                    grad: T
  *** grid_quadv0:                    kske: F
  *** grid_quadv0:                    kslap: F
  *** grid_quadv0:                    do_scf: T
  *** grid_quadv0:                    fde_option:                    0
  *** grid_quadv0:                    n_per_rec:                 3070
  *** grid_quadv0:                    calc_type:                    1
  *** grid_quadv0:                    grid_written: F
  *** grid_quadv0:                    grad: T
  *** grid_quadv0:                    kske: F
  *** grid_quadv0:                    kslap: F
  *** grid_quadv0:                    do_scf: T
  *** grid_quadv0:                    fde_option:                    0
  *** grid_quadv0:                    n_per_rec:                 3070
  *** grid_quadv0:                    calc_type:                    1
  *** grid_quadv0:                    grid_written: F
  *** grid_quadv0:                    grad: T
  *** grid_quadv0:                    kske: F
  *** grid_quadv0:                    kslap: F
  *** grid_quadv0:                    do_scf: T
  *** grid_quadv0:                    fde_option:                    0
  *** grid_quadv0:                    n_per_rec:                 3070
  *** grid_quadv0:                    calc_type:                    1
  *** grid_quadv0:                    grid_written: F
  *** grid_quadv0:                    grad: T
  *** grid_quadv0:                    kske: F
  *** grid_quadv0:                    kslap: F
  *** grid_quadv0:                    do_scf: T
  *** grid_quadv0:                    fde_option:                    0
  *** grid_quadv0:                    n_per_rec:                 3070
  *** grid_quadv0:                    calc_type:                    1
  *** grid_quadv0:                    grid_written: F
  *** grid_quadv0:                    grad: T
  *** grid_quadv0:                    kske: F
  *** grid_quadv0:                    kslap: F
  *** grid_quadv0:                    do_scf: T
  *** grid_quadv0:                    fde_option:                    0
  *** grid_quadv0:                    n_per_rec:                 3070
   0: nuse=   8 avail= 12500000Mb on .
   2: nuse=   8 avail= 12500000Mb on .
   5: nuse=   8 avail= 12500000Mb on .
   6: nuse=   8 avail= 12500000Mb on .
   7: nuse=   8 avail= 12500000Mb on .
   1: nuse=   8 avail= 12500000Mb on .
   3: nuse=   8 avail= 12500000Mb on .
   4: nuse=   8 avail= 12500000Mb on .
 l_cube input   11.00

  atom type   l_cube   no. cubes   segmts   rad   sub
 ----------- -------- ----------- -------- ----- -----
        1      9.20       124         5      23     8

 Grid_pts file          = ./si.gridpts.0
 Record size in doubles =  12289        No. of grid_pts per rec  =   3070
 Max. records in memory =     10        Max. recs in file   = 126656358

 me   0 NQTOTC NQ/cube   17379     294
 me   1 NQTOTC NQ/cube    9864     986
 me   2 NQTOTC NQ/cube   10343    1292
 me   3 NQTOTC NQ/cube   10877     988
 me   4 NQTOTC NQ/cube    9794    1958
 me   5 NQTOTC NQ/cube    8335     555
 me   6 NQTOTC NQ/cube    8231     748
 me   7 NQTOTC NQ/cube   10231    2046

 XC quadr. integrated density :      14.000000 npts:    84702 nctrs:        1

    Fock_xc Build Time:          0.2s


     <<<<<<    Before call to GETVCOUL.   >>>>>>
     <<<<<< date:  Apr 24  time: 11:25:10 >>>>>>



     <<<<<<    End of parallel region.    >>>>>>
     <<<<<< date:  Apr 24  time: 11:25:10 >>>>>>

    Total Fock Matrix Build Time:          0.6s
 Etnew, Ecore, Ecoul, Exc(1), Exc(2), Totsic:   -289.22285585156112       -399.35931433266353        130.72250652568505       -20.586048044582661        0.0000000000000000        0.0000000000000000     
  delta =   -289.22285585156112     
  delta =   -289.22285585156112     


         Total DFT energy =     -289.222855851561
      One electron energy =     -399.359314332664
           Coulomb energy =      130.722506525685
    Exchange-Corr. energy =      -20.586048044583
  delta =   -289.22285585156112     
  delta =   -289.22285585156112     
  delta =   -289.22285585156112     
  delta =   -289.22285585156112     
  delta =   -289.22285585156112     
  delta =   -289.22285585156112     
 Nuclear repulsion energy =        0.000000000000

 Numeric. integr. density =       13.999999998910

     Total iterative time =      2.2s




     <<<<<<        calling diis driver    >>>>>>
     <<<<<< date:  Apr 24  time: 11:25:10 >>>>>>

 nhist                     1  pulay matrix 
   0.0000E+00
  -1.0000E+00   9.1894E-02


     <<<<<<         called diis driver    >>>>>>
     <<<<<< date:  Apr 24  time: 11:25:10 >>>>>>


 global array: fock transf[1:59,1:59],  handle: -940 

            1           2           3           4           5           6  
       ----------- ----------- ----------- ----------- ----------- -----------
   1       1.94822     0.00000    -0.00000    -0.00000    -0.89558     0.32158
   2       0.00000     0.57028    -0.00221     0.00164     0.00000     0.00000
   3      -0.00000    -0.00221     0.57130     0.00130    -0.00000    -0.00000
   4      -0.00000     0.00164     0.00130     0.57209    -0.00000    -0.00000
   5      -0.89558     0.00000    -0.00000    -0.00000     2.84259    -1.07707
   6       0.32158     0.00000    -0.00000    -0.00000    -1.07707     0.74917
   7      -0.00000     0.32357     0.41806    -0.27440    -0.00000    -0.00000
   8      -0.00000     0.23938    -0.41685    -0.35248    -0.00000    -0.00000
   9       0.00000     0.43932    -0.08133     0.39456     0.00000     0.00000
  10       0.00000    -0.00028    -0.00006    -0.00012     0.00000     0.00000
  11      -0.56348     0.00000    -0.00000    -0.00000     0.23611    -0.55848
  12       0.00000     0.00007    -0.00005    -0.00034     0.00000     0.00000
  13       0.00000     0.00001    -0.00017    -0.00011     0.00000     0.00000
  14       0.00000    -0.00001     0.00013    -0.00002     0.00000     0.00000
  15      -0.00031     0.00000    -0.00000    -0.00000     0.00006     0.00040
  16      -0.00007    -0.00000    -0.00000    -0.00000     0.00001     0.00009
  17      -0.00044    -0.00000     0.00000     0.00000     0.00009     0.00057
  18       0.00000    -0.01799     0.01341     0.01100     0.00000     0.00000
  19      -0.00000     0.00601     0.02007    -0.01341    -0.00000    -0.00000
  20      -0.00000    -0.01583    -0.00680    -0.01785    -0.00000    -0.00000
  21      -0.00000    -0.00011    -0.00002    -0.00005    -0.00000    -0.00000
  22      -0.00026    -0.00000     0.00000     0.00000     0.00005     0.00034
  23      -0.00008     0.00000    -0.00000    -0.00000     0.00002     0.00010
  24      -0.00000     0.00001    -0.00008    -0.00003    -0.00000    -0.00000
  25       0.00000    -0.00000    -0.00004     0.00011     0.00000     0.00000
  26       0.00000    -0.00003     0.00007     0.00013     0.00000     0.00000
  27       0.00000    -0.04995     0.13464    -0.01858     0.00000     0.00000
  28      -0.00000     0.06811     0.00707    -0.12702    -0.00000    -0.00000
  29      -0.00000    -0.11706    -0.05213    -0.06690    -0.00000    -0.00000
  30      -0.00013     0.00000    -0.00000    -0.00000    -0.00012    -0.00008
  31       0.00002     0.00000    -0.00000    -0.00000     0.00002     0.00001
  32      -0.00058     0.00000    -0.00000    -0.00000    -0.00052    -0.00038
  33      -0.00000    -0.03310    -0.02383    -0.03855    -0.00000    -0.00000
  34      -0.00000     0.04049     0.00454    -0.03802    -0.00000    -0.00000
  35       0.00000    -0.01972     0.05030    -0.01442     0.00000     0.00000
  36      -0.03124     0.00000    -0.00000    -0.00000     0.14970    -0.23853
  37      -0.00000    -0.00774    -0.05190     0.02784    -0.00000    -0.00000
  38       0.00000     0.03819     0.01671     0.04302     0.00000     0.00000
  39      -0.00000     0.04491    -0.02442    -0.03091    -0.00000    -0.00000
  40      -0.00007     0.00000    -0.00000    -0.00000    -0.00006    -0.00005
  41      -0.00029    -0.00000    -0.00000    -0.00000    -0.00026    -0.00019
  42      -0.00019    -0.00000     0.00000     0.00000    -0.00002     0.00000
  43      -0.00032    -0.00000     0.00000     0.00000    -0.00003     0.00000
  44      -0.00065     0.00000     0.00000    -0.00000    -0.00006     0.00000
  45      -0.01983     0.00000    -0.00000    -0.00000    -0.10175     0.07548
  46      -0.00000     0.03385     0.02122     0.03421    -0.00000    -0.00000
  47      -0.00000    -0.01463    -0.03521     0.03630    -0.00000    -0.00000
  48      -0.00000    -0.03752     0.03288     0.01673    -0.00000    -0.00000
  49      -0.00034     0.00000     0.00000     0.00000    -0.00003     0.00000
  50      -0.00017    -0.00000     0.00000     0.00000    -0.00002     0.00000
  51       0.04851     0.00000    -0.00000    -0.00000     0.06164    -0.06160
  52      -0.00000    -0.01201    -0.03366     0.02764    -0.00000    -0.00000
  53      -0.00000    -0.03141     0.02711     0.01878    -0.00000    -0.00000
  54       0.00000    -0.03036    -0.01402    -0.03088     0.00000     0.00000
  55      -0.04417    -0.00000     0.00000     0.00000     0.13098    -0.08476
  56       0.00000    -0.00062    -0.00057     0.00050     0.00000     0.00000
  57      -0.00000    -0.00055    -0.00016    -0.00094    -0.00000    -0.00000
  58      -0.00000     0.00062    -0.00090    -0.00021    -0.00000    -0.00000
  59       0.02961    -0.00000     0.00000     0.00000    -0.05245     0.04696

            7           8           9          10          11          12  
       ----------- ----------- ----------- ----------- ----------- -----------
   1      -0.00000    -0.00000     0.00000     0.00000    -0.56348     0.00000
   2       0.32357     0.23938     0.43932    -0.00028     0.00000     0.00007
   3       0.41806    -0.41685    -0.08133    -0.00006    -0.00000    -0.00005
   4      -0.27440    -0.35248     0.39456    -0.00012    -0.00000    -0.00034
   5      -0.00000    -0.00000     0.00000     0.00000     0.23611     0.00000
   6      -0.00000    -0.00000     0.00000     0.00000    -0.55848     0.00000
   7       3.84219    -0.00126    -0.00155    -0.00050    -0.00000     0.00044
   8      -0.00126     3.85083    -0.00020    -0.00004    -0.00000     0.00025
   9      -0.00155    -0.00020     3.85072    -0.00041     0.00000    -0.00006
  10      -0.00050    -0.00004    -0.00041     1.05616     0.00000    -0.00025
  11      -0.00000    -0.00000     0.00000     0.00000     2.73227     0.00000
  12       0.00044     0.00025    -0.00006    -0.00025     0.00000     1.05315
  13      -0.00013     0.00017    -0.00010     0.00020     0.00000    -0.00076
  14       0.00020     0.00006     0.00003    -0.00018     0.00000    -0.00049
  15      -0.00000    -0.00000     0.00000    -0.00000    -0.00002     0.00000
  16       0.00000    -0.00000     0.00000     0.00000    -0.00000     0.00000
  17       0.00000     0.00000    -0.00000    -0.00000    -0.00002    -0.00000
  18       0.08913     0.36251     0.12260     0.00180     0.00000    -0.00106
  19      -0.37283     0.05488     0.10925    -0.00163    -0.00000     0.00075
  20       0.08362    -0.14143     0.35709     0.00376    -0.00000     0.00016
  21       0.00034     0.00009    -0.00028     0.36864    -0.00000    -0.00033
  22       0.00000     0.00000    -0.00000    -0.00000    -0.00001    -0.00000
  23      -0.00000    -0.00000    -0.00000     0.00000    -0.00000    -0.00000
  24       0.00011     0.00026     0.00001     0.00020    -0.00000    -0.03578
  25       0.00036    -0.00007     0.00030     0.00034     0.00000    -0.22801
  26       0.00022    -0.00027     0.00020     0.00013     0.00000    -0.28616
  27      -0.43547     0.58980     0.38540     0.00019     0.00000     0.00005
  28      -0.57798    -0.55792     0.19850    -0.00010    -0.00000     0.00268
  29       0.39945    -0.16533     0.70613     0.00108    -0.00000     0.00089
  30      -0.00000    -0.00000     0.00000    -0.00000    -0.00009     0.00000
  31      -0.00000    -0.00000     0.00000     0.00000     0.00001     0.00000
  32       0.00000    -0.00000     0.00000     0.00000    -0.00038     0.00000
  33      -0.06608     0.10142    -0.18086    -0.00100    -0.00000    -0.00004
  34       0.16698     0.13812     0.01585     0.00061    -0.00000    -0.00004
  35       0.12220    -0.13400    -0.11992    -0.00004     0.00000    -0.00007
  36      -0.00000    -0.00000     0.00000     0.00000    -0.03103     0.00000
  37      -0.36312     0.11143     0.13198     0.00010    -0.00000     0.00010
  38       0.08709    -0.14604     0.36536    -0.00030     0.00000     0.00004
  39       0.14767     0.35890     0.10780    -0.00011    -0.00000    -0.00017
  40      -0.00000    -0.00000     0.00000     0.00000    -0.00005     0.00000
  41      -0.00000    -0.00000     0.00000     0.00000    -0.00019     0.00000
  42       0.00000     0.00000    -0.00000    -0.00000    -0.00003    -0.00000
  43       0.00000     0.00000    -0.00000     0.00000    -0.00004    -0.00000
  44      -0.00000     0.00000     0.00000    -0.00000    -0.00009    -0.00000
  45      -0.00000    -0.00000     0.00000     0.00000     1.20361     0.00000
  46      -0.01743     0.02067    -0.04330    -0.00199    -0.00000    -0.00172
  47       0.04850     0.00284    -0.01717     0.00041    -0.00000    -0.00235
  48       0.00529     0.04624     0.02033     0.00088    -0.00000    -0.00171
  49       0.00000     0.00000    -0.00000    -0.00000    -0.00005    -0.00000
  50       0.00000     0.00000    -0.00000    -0.00000    -0.00002    -0.00000
  51      -0.00000    -0.00000     0.00000     0.00000    -0.62672     0.00000
  52      -0.35550     0.01960     0.11639     0.00027    -0.00000    -0.00096
  53      -0.05556    -0.35403    -0.11958     0.00038    -0.00000    -0.00090
  54      -0.10044     0.13167    -0.33933     0.00095     0.00000     0.00077
  55       0.00000     0.00000    -0.00000    -0.00000    -0.17741    -0.00000
  56      -0.05626    -0.00905    -0.00348     0.00042     0.00000    -0.00082
  57       0.00093     0.02580    -0.05824     0.00100    -0.00000     0.00141
  58      -0.01125     0.05754     0.02529    -0.00034    -0.00000     0.00071
  59       0.00000     0.00000    -0.00000    -0.00000    -0.00187    -0.00000

           13          14          15          16          17          18  
       ----------- ----------- ----------- ----------- ----------- -----------
   1       0.00000     0.00000    -0.00031    -0.00007    -0.00044     0.00000
   2       0.00001    -0.00001     0.00000    -0.00000    -0.00000    -0.01799
   3      -0.00017     0.00013    -0.00000    -0.00000     0.00000     0.01341
   4      -0.00011    -0.00002    -0.00000    -0.00000     0.00000     0.01100
   5       0.00000     0.00000     0.00006     0.00001     0.00009     0.00000
   6       0.00000     0.00000     0.00040     0.00009     0.00057     0.00000
   7      -0.00013     0.00020    -0.00000     0.00000     0.00000     0.08913
   8       0.00017     0.00006    -0.00000    -0.00000     0.00000     0.36251
   9      -0.00010     0.00003     0.00000     0.00000    -0.00000     0.12260
  10       0.00020    -0.00018    -0.00000     0.00000    -0.00000     0.00180
  11       0.00000     0.00000    -0.00002    -0.00000    -0.00002     0.00000
  12      -0.00076    -0.00049     0.00000     0.00000    -0.00000    -0.00106
  13       1.05627     0.00259     0.00000     0.00000    -0.00000    -0.00057
  14       0.00259     1.05848     0.00000     0.00000    -0.00000    -0.00182
  15       0.00000     0.00000     0.83902     0.00098    -0.00124     0.00000
  16       0.00000     0.00000     0.00098     0.83764    -0.00132     0.00000
  17      -0.00000    -0.00000    -0.00124    -0.00132     0.83678    -0.00000
  18      -0.00057    -0.00182     0.00000     0.00000    -0.00000     1.09990
  19      -0.00012    -0.00017    -0.00000     0.00000     0.00000     0.00072
  20       0.00148    -0.00001    -0.00000    -0.00000     0.00000     0.00015
  21       0.00016    -0.00018     0.00000    -0.00000     0.00000     0.00048
  22      -0.00000    -0.00000    -0.00140    -0.00002     0.00069    -0.00000
  23       0.00000    -0.00000    -0.00112     0.00213    -0.00061     0.00000
  24       0.36665    -0.00643    -0.00000    -0.00000     0.00000    -0.00030
  25      -0.02841    -0.28830     0.00000     0.00000    -0.00000     0.00057
  26      -0.02239     0.23068     0.00000    -0.00000    -0.00000    -0.00015
  27      -0.00116     0.00184     0.00000     0.00000    -0.00000     0.09265
  28       0.00034    -0.00018    -0.00000    -0.00000     0.00000    -0.09289
  29       0.00039    -0.00022    -0.00000    -0.00000     0.00000     0.02434
  30       0.00000     0.00000    -0.18174     0.26774     0.18540     0.00000
  31       0.00000     0.00000    -0.20667    -0.25897     0.17156     0.00000
  32       0.00000     0.00000     0.25215    -0.01897     0.27491     0.00000
  33      -0.00042    -0.00019    -0.00000    -0.00000     0.00000     0.04107
  34      -0.00015    -0.00041    -0.00000    -0.00000     0.00000     0.32064
  35       0.00004     0.00051     0.00000     0.00000    -0.00000    -0.25157
  36       0.00000     0.00000    -0.00198    -0.00045    -0.00281     0.00000
  37      -0.00005     0.00021     0.00000    -0.00000     0.00000     0.00262
  38      -0.00013    -0.00008     0.00000     0.00000    -0.00000    -0.00029
  39       0.00004     0.00029    -0.00000    -0.00000     0.00000     0.01488
  40       0.00000     0.00000     0.00006    -0.00010     0.00011     0.00000
  41       0.00000     0.00000     0.00008     0.00010     0.00028     0.00000
  42      -0.00000    -0.00000    -0.02610    -0.01042     0.03218    -0.00000
  43      -0.00000    -0.00000     0.00249     0.03939     0.01278    -0.00000
  44      -0.00000    -0.00000     0.03287    -0.01066     0.02116    -0.00000
  45       0.00000     0.00000    -0.00011    -0.00002    -0.00016     0.00000
  46      -0.00094     0.00041    -0.00000    -0.00000     0.00000     0.00139
  47       0.00051    -0.00114    -0.00000     0.00000     0.00000     0.00168
  48      -0.00126     0.00125    -0.00000    -0.00000     0.00000     0.02097
  49      -0.00000    -0.00000    -0.00116     0.00043    -0.00069    -0.00000
  50      -0.00000    -0.00000    -0.00031    -0.00063    -0.00002    -0.00000
  51       0.00000     0.00000    -0.00070    -0.00016    -0.00100     0.00000
  52       0.00031    -0.00058    -0.00000     0.00000     0.00000    -0.01658
  53      -0.00057     0.00049    -0.00000    -0.00000     0.00000    -0.21814
  54       0.00038    -0.00011     0.00000     0.00000    -0.00000    -0.00468
  55      -0.00000    -0.00000    -0.00013    -0.00003    -0.00019    -0.00000
  56       0.00016    -0.00033     0.00000    -0.00000    -0.00000    -0.02008
  57       0.00041     0.00001    -0.00000    -0.00000     0.00000     0.00449
  58       0.00082    -0.00087    -0.00000    -0.00000     0.00000     0.04671
  59      -0.00000    -0.00000     0.00214     0.00048     0.00304    -0.00000

           19          20          21          22          23          24  
       ----------- ----------- ----------- ----------- ----------- -----------
   1      -0.00000    -0.00000    -0.00000    -0.00026    -0.00008    -0.00000
   2       0.00601    -0.01583    -0.00011    -0.00000     0.00000     0.00001
   3       0.02007    -0.00680    -0.00002     0.00000    -0.00000    -0.00008
   4      -0.01341    -0.01785    -0.00005     0.00000    -0.00000    -0.00003
   5      -0.00000    -0.00000    -0.00000     0.00005     0.00002    -0.00000
   6      -0.00000    -0.00000    -0.00000     0.00034     0.00010    -0.00000
   7      -0.37283     0.08362     0.00034     0.00000    -0.00000     0.00011
   8       0.05488    -0.14143     0.00009     0.00000    -0.00000     0.00026
   9       0.10925     0.35709    -0.00028    -0.00000    -0.00000     0.00001
  10      -0.00163     0.00376     0.36864    -0.00000     0.00000     0.00020
  11      -0.00000    -0.00000    -0.00000    -0.00001    -0.00000    -0.00000
  12       0.00075     0.00016    -0.00033    -0.00000    -0.00000    -0.03578
  13      -0.00012     0.00148     0.00016    -0.00000     0.00000     0.36665
  14      -0.00017    -0.00001    -0.00018    -0.00000    -0.00000    -0.00643
  15      -0.00000    -0.00000     0.00000    -0.00140    -0.00112    -0.00000
  16       0.00000    -0.00000    -0.00000    -0.00002     0.00213    -0.00000
  17       0.00000     0.00000     0.00000     0.00069    -0.00061     0.00000
  18       0.00072     0.00015     0.00048    -0.00000     0.00000    -0.00030
  19       1.09852     0.00029    -0.00051     0.00000    -0.00000    -0.00010
  20       0.00029     1.10010     0.00122     0.00000     0.00000     0.00047
  21      -0.00051     0.00122     0.66469     0.00000    -0.00000     0.00051
  22       0.00000     0.00000     0.00000     0.83620     0.00098     0.00000
  23      -0.00000     0.00000    -0.00000     0.00098     0.83862    -0.00000
  24      -0.00010     0.00047     0.00051     0.00000    -0.00000     0.66392
  25      -0.00013    -0.00030     0.00066    -0.00000    -0.00000    -0.00096
  26      -0.00020    -0.00020     0.00019    -0.00000     0.00000     0.00114
  27       0.09868     0.00770     0.00023    -0.00000     0.00000    -0.00054
  28       0.08332     0.04235     0.00009     0.00000    -0.00000     0.00017
  29      -0.03116     0.12460     0.00062     0.00000     0.00000     0.00017
  30      -0.00000    -0.00000     0.00000     0.00013     0.00013    -0.00000
  31      -0.00000    -0.00000    -0.00000     0.00006    -0.00007    -0.00000
  32       0.00000    -0.00000    -0.00000     0.00028     0.00001    -0.00000
  33       0.05098    -0.40448    -0.00141     0.00000     0.00000    -0.00065
  34      -0.25453     0.00095     0.00055     0.00000    -0.00000    -0.00041
  35      -0.31620    -0.06573    -0.00030    -0.00000     0.00000     0.00045
  36      -0.00000    -0.00000    -0.00000    -0.00168    -0.00051    -0.00000
  37       0.01485     0.00034     0.00040    -0.00000    -0.00000     0.00002
  38       0.00024     0.01498    -0.00032    -0.00000    -0.00000    -0.00017
  39      -0.00191    -0.00029    -0.00026     0.00000    -0.00000    -0.00001
  40      -0.00000    -0.00000    -0.00000     0.18715    -0.32259    -0.00000
  41      -0.00000    -0.00000    -0.00000     0.32269     0.18733    -0.00000
  42       0.00000     0.00000     0.00000     0.00027    -0.00018     0.00000
  43       0.00000     0.00000    -0.00000    -0.00036     0.00052     0.00000
  44      -0.00000     0.00000     0.00000    -0.00109    -0.00090     0.00000
  45      -0.00000    -0.00000    -0.00000    -0.00009    -0.00003    -0.00000
  46       0.00190    -0.01879    -0.00079     0.00000     0.00000    -0.00031
  47      -0.02111    -0.00333    -0.00006     0.00000    -0.00000     0.00023
  48       0.00528     0.00080     0.00033     0.00000    -0.00000    -0.00052
  49       0.00000     0.00000     0.00000     0.02986     0.02955     0.00000
  50       0.00000     0.00000     0.00000     0.02832    -0.03050     0.00000
  51      -0.00000    -0.00000    -0.00000    -0.00060    -0.00018    -0.00000
  52       0.21694     0.01249     0.00018     0.00000    -0.00000     0.00016
  53      -0.01586     0.00367     0.00015     0.00000    -0.00000    -0.00013
  54       0.01239    -0.21936     0.00033    -0.00000    -0.00000     0.00011
  55       0.00000     0.00000     0.00000    -0.00011    -0.00003     0.00000
  56       0.04485    -0.01129    -0.00087    -0.00000     0.00000    -0.00029
  57      -0.00982    -0.05104     0.00057     0.00000     0.00000     0.00013
  58       0.01934    -0.00002    -0.00021     0.00000    -0.00000     0.00053
  59       0.00000     0.00000     0.00000     0.00182     0.00055     0.00000

           25          26          27          28          29          30  
       ----------- ----------- ----------- ----------- ----------- -----------
   1       0.00000     0.00000     0.00000    -0.00000    -0.00000    -0.00013
   2      -0.00000    -0.00003    -0.04995     0.06811    -0.11706     0.00000
   3      -0.00004     0.00007     0.13464     0.00707    -0.05213    -0.00000
   4       0.00011     0.00013    -0.01858    -0.12702    -0.06690    -0.00000
   5       0.00000     0.00000     0.00000    -0.00000    -0.00000    -0.00012
   6       0.00000     0.00000     0.00000    -0.00000    -0.00000    -0.00008
   7       0.00036     0.00022    -0.43547    -0.57798     0.39945    -0.00000
   8      -0.00007    -0.00027     0.58980    -0.55792    -0.16533    -0.00000
   9       0.00030     0.00020     0.38540     0.19850     0.70613     0.00000
  10       0.00034     0.00013     0.00019    -0.00010     0.00108    -0.00000
  11       0.00000     0.00000     0.00000    -0.00000    -0.00000    -0.00009
  12      -0.22801    -0.28616     0.00005     0.00268     0.00089     0.00000
  13      -0.02841    -0.02239    -0.00116     0.00034     0.00039     0.00000
  14      -0.28830     0.23068     0.00184    -0.00018    -0.00022     0.00000
  15       0.00000     0.00000     0.00000    -0.00000    -0.00000    -0.18174
  16       0.00000    -0.00000     0.00000    -0.00000    -0.00000     0.26774
  17      -0.00000    -0.00000    -0.00000     0.00000     0.00000     0.18540
  18       0.00057    -0.00015     0.09265    -0.09289     0.02434     0.00000
  19      -0.00013    -0.00020     0.09868     0.08332    -0.03116    -0.00000
  20      -0.00030    -0.00020     0.00770     0.04235     0.12460    -0.00000
  21       0.00066     0.00019     0.00023     0.00009     0.00062     0.00000
  22      -0.00000    -0.00000    -0.00000     0.00000     0.00000     0.00013
  23      -0.00000     0.00000     0.00000    -0.00000     0.00000     0.00013
  24      -0.00096     0.00114    -0.00054     0.00017     0.00017    -0.00000
  25       0.66473    -0.00114    -0.00044    -0.00061    -0.00032     0.00000
  26      -0.00114     0.66408     0.00057    -0.00092    -0.00047     0.00000
  27      -0.00044     0.00057     1.27943    -0.00197     0.00139     0.00000
  28      -0.00061    -0.00092    -0.00197     1.27792     0.00279    -0.00000
  29      -0.00032    -0.00047     0.00139     0.00279     1.28008    -0.00000
  30       0.00000     0.00000     0.00000    -0.00000    -0.00000     0.54825
  31       0.00000     0.00000     0.00000    -0.00000    -0.00000     0.00061
  32       0.00000     0.00000     0.00000    -0.00000    -0.00000    -0.00082
  33       0.00059     0.00005     0.01792    -0.05063    -0.15931    -0.00000
  34       0.00038    -0.00045     0.01365    -0.15946     0.05114    -0.00000
  35      -0.00031     0.00035    -0.16835    -0.01824    -0.01314     0.00000
  36       0.00000     0.00000     0.00000    -0.00000    -0.00000     0.00008
  37      -0.00013     0.00021     0.45518     0.29011    -0.11835     0.00000
  38      -0.00019    -0.00046     0.02746     0.17105     0.52555     0.00000
  39      -0.00030     0.00074     0.31209    -0.43866     0.12655    -0.00000
  40       0.00000     0.00000     0.00000    -0.00000    -0.00000    -0.00084
  41       0.00000     0.00000     0.00000    -0.00000    -0.00000     0.00138
  42      -0.00000    -0.00000    -0.00000     0.00000     0.00000     0.08298
  43      -0.00000    -0.00000     0.00000     0.00000     0.00000     0.13237
  44      -0.00000     0.00000    -0.00000    -0.00000     0.00000    -0.04900
  45       0.00000     0.00000     0.00000    -0.00000    -0.00000    -0.00002
  46       0.00047     0.00080     0.02380    -0.08586    -0.33322    -0.00000
  47       0.00077     0.00036    -0.21069    -0.26398     0.05008    -0.00000
  48       0.00001     0.00095     0.27047    -0.20124     0.07052    -0.00000
  49      -0.00000    -0.00000    -0.00000     0.00000     0.00000     0.00051
  50      -0.00000    -0.00000    -0.00000     0.00000     0.00000    -0.00013
  51       0.00000     0.00000     0.00000    -0.00000    -0.00000     0.00007
  52       0.00039     0.00015     0.49302     0.51086    -0.15098    -0.00000
  53       0.00011     0.00030    -0.53453     0.47986    -0.11332    -0.00000
  54      -0.00008    -0.00017    -0.02069    -0.18964    -0.70133     0.00000
  55      -0.00000    -0.00000    -0.00000     0.00000     0.00000    -0.00059
  56      -0.00066    -0.00027     0.00464     0.00934    -0.00671     0.00000
  57      -0.00077    -0.00092    -0.00059    -0.00201    -0.00451    -0.00000
  58       0.00018    -0.00089     0.00502    -0.00201     0.00043    -0.00000
  59      -0.00000    -0.00000    -0.00000     0.00000     0.00000     0.00025

           31          32          33          34          35          36  
       ----------- ----------- ----------- ----------- ----------- -----------
[...]
  53       0.00000    -0.14802     0.51037    -0.17947    -0.26742    -0.98888
  54      -0.00000    -1.24630     0.18059    -1.26578    -0.09896    -0.74390
  55       0.00000    -0.63123    -0.62855    -0.43935    -0.73953     0.77619
  56       0.00000    -0.23429    -0.17325    -0.00385     0.45414    -0.09854
  57       0.00000     0.37106    -1.26709    -0.10425     0.04000    -0.42630
  58       0.00000     1.08364     0.11858    -0.59976    -0.78788    -0.19215
  59       0.00000     0.06165     0.42331    -0.30028     0.17826     0.32161

           49          50          51          52          53          54  
       ----------- ----------- ----------- ----------- ----------- -----------
   1      -0.00000     0.00000    -0.32391     0.00000     0.00000    -0.00001
   2      -0.00000     0.00000    -2.08057     0.00000     0.00000    -0.00005
   3      -0.00000     0.00000    -2.85351     0.00000    -0.00000    -0.00007
   4      -0.00000     0.00000   -12.28908    -0.00000     0.00011    -0.00023
   5       0.00000    -0.00000    40.64053     0.00000    -0.00033     0.00077
   6       0.00000    -0.00000    20.18680     0.00000    -0.00016     0.00041
   7       0.00000    -0.00000    -0.00006     0.45649    -1.26778     0.53972
   8       0.00000     0.00000     0.00006    -0.78365    -0.70458    -1.00084
   9      -0.00000     0.00000    -0.00006    -1.14432    -0.02323     0.90070
  10       0.00000    -0.00000    -0.00016     1.50138    -4.17766     1.77853
  11       0.00000     0.00000     0.00014    -2.57740    -2.32177    -3.29803
  12      -0.00000     0.00000    -0.00016    -3.76364    -0.07655     2.96803
  13       0.00000    -0.00000     0.00001    -0.01604     0.04340    -0.01847
  14       0.00000     0.00000    -0.00003     0.02753     0.02412     0.03426
  15      -0.00000     0.00000     0.00003     0.04020     0.00080    -0.03083
  16      -0.00000     0.00000     0.00042    -1.93314     5.31472    -2.26260
  17      -0.00000    -0.00000    -0.00009     3.31860     2.95371     4.19568
  18       0.00000    -0.00000     0.00023     4.84597     0.09738    -3.77586
  19       0.00000    -0.00000    -0.00003     0.07039    -0.19256     0.08198
  20       0.00000     0.00000     0.00001    -0.12085    -0.10702    -0.15201
  21      -0.00000     0.00000    -0.00002    -0.17647    -0.00353     0.13680
  22       0.00000     0.00000   -14.96092    -0.00000     0.00012    -0.00028
  23       0.00000    -0.00000    -0.00656     0.00000     0.00000    -0.00000
  24      -0.00000     0.00000    -0.00957     0.00000    -0.00000    -0.00000
  25      -0.00000    -0.00000   -14.95720    -0.00000     0.00012    -0.00028
  26       0.00000     0.00000     0.01643     0.00000    -0.00000    -0.00000
  27      -0.00000     0.00000   -14.95083    -0.00000     0.00012    -0.00028
  28      -0.00000    -0.00000    -2.24886    -0.00000     0.00003    -0.00004
  29      -0.00000     0.00000     0.00799    -0.00000    -0.00000    -0.00000
  30       0.00000    -0.00000     0.01167    -0.00000    -0.00000     0.00000
  31       0.00000     0.00000    -2.25340    -0.00000     0.00003    -0.00004
  32      -0.00000    -0.00000    -0.02004    -0.00000     0.00000    -0.00000
  33       0.00000    -0.00000    -2.26117    -0.00000     0.00003    -0.00004
  34      -0.00000    -0.00000    -9.02276    -0.00000     0.00007    -0.00018
  35      -0.00000     0.00000     0.00268     0.00000    -0.00000     0.00000
  36      -0.00000    -0.00000     0.00391    -0.00000     0.00000     0.00000
  37       0.00000     0.00000    -9.02428    -0.00000     0.00007    -0.00018
  38      -0.00000    -0.00000    -0.00671    -0.00000     0.00000     0.00000
  39       0.00000    -0.00000    -9.02688    -0.00000     0.00007    -0.00018
  40      -0.17988     0.81452     0.00003    -0.72747     2.00615    -0.85406
  41       2.02216     0.92317    -0.00006     1.23981     1.13773     1.57404
  42      -1.60008     0.34258     0.00006     1.81043     0.07005    -1.43945
  43       1.17794    -1.58480     0.00003    -0.70686     2.00589    -0.83056
  44       0.00000     2.90714    -0.00000     0.06787    -0.03823     0.03441
  45      -0.63830    -0.85877     0.00003    -0.68054     1.97168    -0.86278
  46      -0.38584    -0.43930    -0.00006     1.24005     1.10775     1.57354
  47       1.26259     0.27032     0.00006     1.77194     0.00476    -1.46120
  48      -0.86464     0.39473    -0.00007     1.16828     1.09439     1.59665
  49       0.11250    -0.20430     0.00006     1.78879     0.03612    -1.40035
  50       0.09098    -0.41198    -0.00022     1.15062    -3.15382     1.34265
  51      -1.02279    -0.46693     0.00005    -1.97136    -1.76235    -2.48569
  52       0.80931    -0.17327    -0.00012    -2.87867    -0.07178     2.24660
  53      -0.59579     0.80157    -0.00022     1.14172    -3.15371     1.33277
  54      -0.00000    -1.47040     0.00000    -0.02932     0.01607    -0.01447
  55       0.32285     0.43435    -0.00022     1.13035    -3.13933     1.34632
  56       0.19515     0.22219     0.00005    -1.97147    -1.74975    -2.48547
  57      -0.63861    -0.13672    -0.00012    -2.86204    -0.04433     2.25575
  58       0.43733    -0.19965     0.00005    -1.94046    -1.74413    -2.49519
  59      -0.05690     0.10333    -0.00012    -2.86932    -0.05752     2.23016

           55          56          57          58          59  
       ----------- ----------- ----------- ----------- -----------
   1       1.12135     1.09436     0.00000    -0.00001    -0.00006
   2       8.09209    10.51545     0.00001    -0.00009    -0.00058
   3      10.99455    19.50047     0.00001    -0.00016    -0.00110
   4      -5.21520    -7.80328    -0.00000     0.00003     0.00062
   5       0.81917    18.44512     0.00001    -0.00003    -0.00162
   6      -6.46412     2.95048     0.00000     0.00006    -0.00045
   7       0.00000    -0.00004    -1.48735     4.38649    -1.08664
   8      -0.00000     0.00022     2.55333     1.75963     3.60809
   9       0.00000    -0.00017     3.72848     0.54482    -2.90436
  10       0.00000    -0.00008    -3.10595     9.16409    -2.27017
  11      -0.00000     0.00045     5.33197     3.67614     7.53788
  12       0.00001    -0.00035     7.78597     1.13822    -6.06768
  13      -0.00001     0.00002     1.19142    -3.51364     0.87042
  14      -0.00000    -0.00018    -2.04531    -1.40949    -2.89013
  15      -0.00000     0.00013    -2.98665    -0.43641     2.32644
  16       0.00004     0.00010     0.69556    -2.04088     0.50558
  17       0.00005    -0.00005    -1.19407    -0.81869    -1.67872
  18      -0.00002     0.00007    -1.74363    -0.25349     1.35130
  19      -0.00000    -0.00001    -0.02073     0.06075    -0.01505
  20      -0.00000    -0.00000     0.03559     0.02437     0.04997
  21       0.00000    -0.00000     0.05197     0.00755    -0.04022
  22      -1.16501    -8.42482    -0.00000     0.00002     0.00069
  23       0.00207     0.00180     0.00000     0.00000    -0.00000
  24       0.00303     0.00263     0.00000    -0.00000    -0.00000
  25      -1.16618    -8.42584    -0.00000     0.00002     0.00069
  26      -0.00520    -0.00451     0.00000     0.00000     0.00000
  27      -1.16820    -8.42759    -0.00000     0.00002     0.00069
  28      -1.58769    -7.31760    -0.00000     0.00005     0.00046
  29       0.00034    -0.00247     0.00000    -0.00000     0.00000
  30       0.00050    -0.00360    -0.00000     0.00000     0.00000
  31      -1.58789    -7.31620    -0.00000     0.00005     0.00046
  32      -0.00085     0.00619    -0.00000    -0.00000    -0.00000
  33      -1.58822    -7.31380    -0.00000     0.00005     0.00046
  34       2.36310    -1.74249    -0.00000    -0.00002     0.00022
  35      -0.00115    -0.00068    -0.00000     0.00000    -0.00000
  36      -0.00169    -0.00099    -0.00000    -0.00000     0.00000
  37       2.36375    -1.74211    -0.00000    -0.00002     0.00022
  38       0.00289     0.00171     0.00000    -0.00000    -0.00000
  39       2.36487    -1.74144    -0.00000    -0.00002     0.00022
  40      -0.00001     0.00003     1.52629    -4.50707     1.11651
  41      -0.00001    -0.00023    -2.62099    -1.80572    -3.70784
  42       0.00000     0.00017    -3.82728    -0.55647     2.98337
  43      -0.00001     0.00003     1.52814    -4.50745     1.11870
  44      -0.00000     0.00000     0.00609    -0.00409     0.00264
  45      -0.00001     0.00003     1.53051    -4.51016     1.11518
  46      -0.00001    -0.00023    -2.62097    -1.80851    -3.70833
  47       0.00000     0.00017    -3.83074    -0.56225     2.98035
  48      -0.00001    -0.00023    -2.62741    -1.81011    -3.70637
  49       0.00000     0.00017    -3.82923    -0.56023     2.98652
  50      -0.00002    -0.00005    -0.41442     1.21770    -0.30165
  51      -0.00003     0.00003     0.71187     0.48721     1.00193
  52       0.00001    -0.00004     1.03951     0.14940    -0.80580
  53      -0.00002    -0.00005    -0.41542     1.21791    -0.30287
  54       0.00000    -0.00000    -0.00328     0.00227    -0.00147
  55      -0.00002    -0.00005    -0.41669     1.21942    -0.30091
  56      -0.00003     0.00003     0.71186     0.48877     1.00221
  57       0.00001    -0.00004     1.04137     0.15261    -0.80413
  58      -0.00003     0.00003     0.71533     0.48965     1.00112
  59       0.00001    -0.00004     1.04055     0.15149    -0.80755
  int_init: cando_txs set to always be  F
                                NWChem TDDFT Module
                                -------------------


            General Information
            -------------------
           No. of orbitals :     118
            Alpha orbitals :      59
             Beta orbitals :      59
        Alpha frozen cores :       0
         Beta frozen cores :       0
     Alpha frozen virtuals :       0
      Beta frozen virtuals :       0
         Spin multiplicity :       3
    Number of AO functions :      59
        Use of symmetry is : off
      Symmetry adaption is : off
         Schwarz screening :  0.10D-07

              XC Information
              --------------
              Hartree-Fock (Exact) Exchange   1.00          
              LC-wPBE(h)Exchange Functional   1.00          
     Perdew 1991 LDA Correlation Functional   1.00 local    
    PerdewBurkeErnz. Correlation Functional   1.00 non-local
           Alpha           :  0.00
           Beta            :  1.00
           Gamma           :  0.40

             TDDFT Information
             -----------------
          Calculation type : TDDFT             
         Wavefunction type : Unrestricted
          No. of electrons :      14
           Alpha electrons :       8
            Beta electrons :       6
              No. of roots :       5
          Max subspacesize :    5000
            Max iterations :     100
               Target root :       1
           Target symmetry : none
      Symmetry restriction : off
                 Algorithm : Optimal
        Davidson threshold :  0.10D-03

            Memory Information
            ------------------
          Available GA space size is       52428793038 doubles
          Available MA space size is        4194415692 doubles
          Length of a trial vector is          408     318
          Algorithm : Incore multiple tensor contraction
          Estimated peak GA usage is          15112068 doubles
          Estimated peak MA usage is             18000 doubles

    5 smallest eigenvalue differences (eV) 
--------------------------------------------------------
  No. Spin  Occ  Vir  Irrep   E(Occ)    E(Vir)   E(Diff)
--------------------------------------------------------
    1    1    8    9 a        -0.302    -0.041     7.098
    2    1    7    9 a        -0.302    -0.041     7.098
    3    1    8   10 a        -0.302     0.038     9.265
    4    1    7   10 a        -0.302     0.038     9.265
    5    1    8   11 a        -0.302     0.059     9.840
--------------------------------------------------------

  Entering Davidson iterations
  Unrestricted

  Iter   NTrls   NConv    DeltaV     DeltaE      Time   
  ----  ------  ------  ---------  ---------  --------- 
    1      5       0     0.76E-01   0.10+100        6.1
    2     15       0     0.35E-01   0.14E-01       10.3
    3     25       0     0.22E-01   0.17E-02       10.5
 tddft_diagon: negative excitation energy                   0
 ------------------------------------------------------------------------
 ------------------------------------------------------------------------
  current input line : 
     0: 
 ------------------------------------------------------------------------
 ------------------------------------------------------------------------
 This type of error is most commonly associated with calculations not reaching convergence criteria
 ------------------------------------------------------------------------
 For more information see the NWChem manual at https://nwchemgit.github.io


 For further details see manual section:                                                                                                                                                                                                                                                                
 tddft_diagon: negative excitation energy                   0
 ------------------------------------------------------------------------
 ------------------------------------------------------------------------
  current input line : 
     0: 
 ------------------------------------------------------------------------
 ------------------------------------------------------------------------
 This type of error is most commonly associated with calculations not reaching convergence criteria
 ------------------------------------------------------------------------
 For more information see the NWChem manual at https://nwchemgit.github.io


 For further details see manual section:                                                                                                                                                                                                                                                                
 ------------------------------------------------------------------------
 tddft_diagon: negative excitation energy                   0
 ------------------------------------------------------------------------
 ------------------------------------------------------------------------
  current input line : 
    23:  task tddft energy
 ------------------------------------------------------------------------
 ------------------------------------------------------------------------
 This type of error is most commonly associated with calculations not reaching convergence criteria
 ------------------------------------------------------------------------
 For more information see the NWChem manual at https://nwchemgit.github.io


 For further details see manual section:                                                                                                                                                                                                                                                                
 tddft_diagon: negative excitation energy                   0
 ------------------------------------------------------------------------
 ------------------------------------------------------------------------
  current input line : 
     0: 
 ------------------------------------------------------------------------
 ------------------------------------------------------------------------
 This type of error is most commonly associated with calculations not reaching convergence criteria
 ------------------------------------------------------------------------
 For more information see the NWChem manual at https://nwchemgit.github.io


 For further details see manual section:                                                                                                                                                                                                                                                                
 tddft_diagon: negative excitation energy                   0
 ------------------------------------------------------------------------
 ------------------------------------------------------------------------
  current input line : 
     0: 
 ------------------------------------------------------------------------
 ------------------------------------------------------------------------
 This type of error is most commonly associated with calculations not reaching convergence criteria
 ------------------------------------------------------------------------
 For more information see the NWChem manual at https://nwchemgit.github.io


 For further details see manual section:                                                                                                                                                                                                                                                                
 tddft_diagon: negative excitation energy                   0
 tddft_diagon: negative excitation energy                   0
 ------------------------------------------------------------------------
 ------------------------------------------------------------------------
 ------------------------------------------------------------------------
  current input line : 
     0: 
 ------------------------------------------------------------------------
  current input line : 
     0: 
 ------------------------------------------------------------------------
 ------------------------------------------------------------------------
 ------------------------------------------------------------------------
 This type of error is most commonly associated with calculations not reaching convergence criteria
 ------------------------------------------------------------------------
 This type of error is most commonly associated with calculations not reaching convergence criteria
 ------------------------------------------------------------------------
 For more information see the NWChem manual at https://nwchemgit.github.io
 ------------------------------------------------------------------------
 For more information see the NWChem manual at https://nwchemgit.github.io


 For further details see manual section:                                                                                                                                                                                                                                                                
 tddft_diagon: negative excitation energy                   0


 For further details see manual section:                                                                                                                                                                                                                                                                
 ------------------------------------------------------------------------
 ------------------------------------------------------------------------
  current input line : 
     0: 
 ------------------------------------------------------------------------
 ------------------------------------------------------------------------
 This type of error is most commonly associated with calculations not reaching convergence criteria
 ------------------------------------------------------------------------
 For more information see the NWChem manual at https://nwchemgit.github.io


 For further details see manual section:                                                                                                                                                                                                                                                                
