 argument  1 = /home/aditisingh4812/nw_chem/nwchem-run/nwchem-run/tddft/open/gdd_open/geom-MOL/bef.nw
                                         
                                         


             Northwest Computational Chemistry Package (NWChem) 7.2.3
             --------------------------------------------------------


                    Environmental Molecular Sciences Laboratory
                       Pacific Northwest National Laboratory
                                Richland, WA 99352

                              Copyright (c) 1994-2022
                       Pacific Northwest National Laboratory
                            Battelle Memorial Institute

             NWChem is an open-source computational chemistry package
                        distributed under the terms of the
                      Educational Community License (ECL) 2.0
             A copy of the license is included with this distribution
                              in the LICENSE.TXT file

                                  ACKNOWLEDGMENT
                                  --------------

            This software and its documentation were developed at the
            EMSL at Pacific Northwest National Laboratory, a multiprogram
            national laboratory, operated for the U.S. Department of Energy
            by Battelle under Contract Number DE-AC05-76RL01830. Support
            for this work was provided by the Department of Energy Office
            of Biological and Environmental Research, Office of Basic
            Energy Sciences, and the Office of Advanced Scientific Computing.


           Job information
           ---------------

    hostname        = p17
    program         = /home/aditisingh4812/nw_chem/nwchem-7.2.3-release.revision-d690e065-srconly.2024-08-27/nwchem-7.2.3/bin/LINUX64/nwchem
    date            = Thu May  8 12:02:50 2025

    compiled        = Mon_Apr_07_18:51:54_2025
    source          = /home/aditisingh4812/nw_chem/nwchem-7.2.3-release.revision-d690e065-srconly.2024-08-27/nwchem-7.2.3
    nwchem branch   = 7.2.3
    nwchem revision = d690e065
    ga revision     = 5.8.0
    use scalapack   = F
    input           = /home/aditisingh4812/nw_chem/nwchem-run/nwchem-run/tddft/open/gdd_open/geom-MOL/bef.nw
    prefix          = bef.
    data base       = ./bef.db
    status          = startup
    nproc           =       72
    time left       =     -1s



           Memory information
           ------------------

    heap     =  262143998 doubles =   2000.0 Mbytes
    stack    =  262143995 doubles =   2000.0 Mbytes
    global   =  655360000 doubles =   5000.0 Mbytes (distinct from heap & stack)
    total    = 1179647993 doubles =   9000.0 Mbytes
    verify   = yes
    hardfail = no 


           Directory information
           ---------------------

  0 permanent = .
  0 scratch   = .




                                NWChem Input Module
                                -------------------



 Scaling coordinates for geometry "geometry" by  1.889725989
 (inverse scale =  0.529177249)



                             Geometry "geometry" -> ""
                             -------------------------

 Output coordinates in angstroms (scale by  1.889725989 to convert to a.u.)

  No.       Tag          Charge          X              Y              Z
 ---- ---------------- ---------- -------------- -------------- --------------
    1 Be                   4.0000     0.00000000     0.00000000    -0.94160215
    2 F                    9.0000     0.00000000     0.00000000     0.41848985

      Atomic Mass 
      ----------- 

      Be                 9.012180
      F                 18.998400


 Effective nuclear repulsion energy (a.u.)      14.0066855507

            Nuclear Dipole moment (a.u.) 
            ----------------------------
        X                 Y               Z
 ---------------- ---------------- ----------------
     0.0000000000     0.0000000000     0.0000000000


            XYZ format geometry
            -------------------
     2
 geometry
 Be                    0.00000000     0.00000000    -0.94160215
 F                     0.00000000     0.00000000     0.41848985

 ==============================================================================
                                internuclear distances
 ------------------------------------------------------------------------------
       center one      |      center two      | atomic units |  angstroms
 ------------------------------------------------------------------------------
    2 F                |   1 Be               |     2.57020  |     1.36009
 ------------------------------------------------------------------------------
                         number of included internuclear distances:          1
 ==============================================================================





 Summary of "ao basis" -> "" (cartesian)
 ------------------------------------------------------------------------------
       Tag                 Description            Shells   Functions and Types
 ---------------- ------------------------------  ------  ---------------------
 *                         def2-TZVPD                 on all atoms 


  pbe96 is a nonlocal functional; adding pw91lda local functional. 

                                 NWChem DFT Module
                                 -----------------


                      Basis "ao basis" -> "ao basis" (cartesian)
                      -----
  Be (Beryllium)
  --------------
            Exponent  Coefficients 
       -------------- ---------------------------------------------------------
  1 S  4.70023656E+03  0.000236
  1 S  7.04828456E+02  0.001824
  1 S  1.60431105E+02  0.009397
  1 S  4.54253473E+01  0.036909
  1 S  1.47983341E+01  0.108976
  1 S  5.35124525E+00  0.216943

  2 S  2.15420448E+00  0.446954
  2 S  9.33637444E-01  0.208670

  3 S  1.87914330E-01  1.000000

  4 S  7.46482679E-02  1.000000

  5 S  3.26504846E-02  1.000000

  6 P  7.16956944E-01 -0.168779
  6 P  1.95419329E-01 -0.514034

  7 P  3.63169171E+00  1.000000

  8 P  6.05154659E-02  1.000000

  9 P  2.77263246E-02  1.000000

 10 D  1.80000000E-01  1.000000

  F (Fluorine)
  ------------
            Exponent  Coefficients 
       -------------- ---------------------------------------------------------
  1 S  3.54791004E+04  0.000215
  1 S  5.31847290E+03  0.001670
  1 S  1.21048110E+03  0.008673
  1 S  3.42855181E+02  0.035050
  1 S  1.12019432E+02  0.111653
  1 S  4.07147402E+01  0.259885

  2 S  1.60396781E+01  0.394230
  2 S  6.50381867E+00  0.249982

  3 S  1.54404775E+00  1.000000

  4 S  6.12234529E-01  1.000000

  5 S  2.40279797E-01  1.000000

  6 S  9.09184465E-02  1.000000

  7 P  8.02339005E+01  0.006369
  7 P  1.85940107E+01  0.044303
  7 P  5.68679027E+00  0.168672
  7 P  1.95110063E+00  0.361663

  8 P  6.69702113E-01  1.000000

  9 P  2.16513004E-01  1.000000

 10 P  5.96132825E-02  1.000000

 11 D  3.10700000E+00  1.000000

 12 D  8.55000000E-01  1.000000

 13 D  1.86083881E-01  1.000000

 14 F  1.91700000E+00  1.000000



 Summary of "ao basis" -> "ao basis" (cartesian)
 ------------------------------------------------------------------------------
       Tag                 Description            Shells   Functions and Types
 ---------------- ------------------------------  ------  ---------------------
 Be                        def2-TZVPD               10       23   5s4p1d
 F                         def2-TZVPD               14       46   6s4p3d1f




 Summary of "ao basis" -> "ao basis" (cartesian)
 ------------------------------------------------------------------------------
       Tag                 Description            Shells   Functions and Types
 ---------------- ------------------------------  ------  ---------------------
 Be                        def2-TZVPD               10       23   5s4p1d
 F                         def2-TZVPD               14       46   6s4p3d1f


  int_init: cando_txs set to always be  F
  Caching 1-el integrals 

            General Information
            -------------------
          SCF calculation type: DFT
          Wavefunction type:  spin polarized.
          No. of atoms     :     2
          No. of electrons :    13
           Alpha electrons :     7
            Beta electrons :     6
          Charge           :     0
          Spin multiplicity:     2
          Use of symmetry is: off; symmetry adaption is: off
          Maximum number of iterations:  50
          AO basis - number of functions:    69
                     number of shells:    24
          Convergence on energy requested:  1.00D-06
          Convergence on density requested:  1.00D-05
          Convergence on gradient requested:  5.00D-04

              XC Information
              --------------
                     Hartree-Fock (Exact) Exchange  1.000          
                     LC-wPBE(h)Exchange Functional  1.000          
            Perdew 1991 LDA Correlation Functional  1.000 local    
           PerdewBurkeErnz. Correlation Functional  1.000 non-local

           Range-Separation Parameters        
           ---------------------------
           Alpha           :  0.00
           Beta            :  1.00
           Gamma           :  0.29
           Short-Range HF  :     F

             Grid Information
             ----------------
          Grid used for XC integration:  xfine     
          Radial quadrature: Mura-Knowles        
          Angular quadrature: Lebedev. 
          Tag              B.-S. Rad. Rad. Pts. Rad. Cut. Ang. Pts.
          ---              ---------- --------- --------- ---------
          Be                  1.05      100          11.0      1454
          F                   0.50      100          11.0      1454
          Grid pruning is: on 
          Number of quadrature shells:   200
          Spatial weights used:  Erf1

          Convergence Information
          -----------------------
          Convergence aids based upon iterative change in 
          total energy or number of iterations. 
          Levelshifting, if invoked, occurs when the 
          HOMO/LUMO gap drops below (HL_TOL):  1.00D-02
          DIIS, if invoked, will attempt to extrapolate 
          using up to (NFOCK): 10 stored Fock matrices.

                    Damping( 0%)  Levelshifting(0.5)       DIIS
                  --------------- ------------------- ---------------
          dE  on:    start            ASAP                start   
          dE off:    2 iters         50 iters            50 iters 


      Screening Tolerance Information
      -------------------------------
          Density screening/tol_rho:  1.00D-10
          AO Gaussian exp screening on grid/accAOfunc:  14
          CD Gaussian exp screening on grid/accCDfunc:  20
          XC Gaussian exp screening on grid/accXCfunc:  20
          Schwarz screening/accCoul:  1.00D-08

  
  CAM type calculations without CDFIT are
  only available with the direct option.
  Forcing Direct SCF
  

      Superposition of Atomic Density Guess
      -------------------------------------

 Sum of atomic energies:        -113.99083959

      Non-variational initial energy
      ------------------------------

 Total energy =    -114.093875
 1-e energy   =    -185.486625
 2-e energy   =      57.386064
 HOMO         =      -0.209630
 LUMO         =       0.044021

  WARNING: movecs_in_org=atomic not equal to movecs_in=./bef.movecs
   Time after variat. SCF:      0.9
   Time prior to 1st pass:      0.9

 Grid_pts file          = ./bef.gridpts.00
 Record size in doubles =  12289        No. of grid_pts per rec  =   3070
 Max. records in memory =      3        Max. recs in file   =  14072920

 Grid integrated density:      12.999998194979
 Requested integration accuracy:   0.10E-07

           Memory utilization after 1st SCF pass: 
           Heap Space remaining (MW):      157.35           157354422
          Stack Space remaining (MW):      262.14           262143308

   convergence    iter        energy       DeltaE   RMS-Dens  Diis-err    time
 ---------------- ----- ----------------- --------- --------- ---------  ------
 d= 0,ls=0.0,diis     1   -114.4677731721 -1.28D+02  8.34D-03  2.45D-01     1.5
                                                     7.00D-03  2.23D-01
 Grid integrated density:      12.999997983478
 Requested integration accuracy:   0.10E-07
 d= 0,ls=0.0,diis     2   -114.4629370844  4.84D-03  3.19D-03  3.21D-01     1.9
                                                     3.23D-03  3.29D-01
 Grid integrated density:      12.999999597894
 Requested integration accuracy:   0.10E-07
 d= 0,ls=0.0,diis     3   -114.5514592505 -8.85D-02  9.92D-04  5.61D-03     2.2
                                                     4.07D-04  4.43D-03
 Grid integrated density:      12.999999595649
 Requested integration accuracy:   0.10E-07
 d= 0,ls=0.0,diis     4   -114.5536859005 -2.23D-03  5.15D-04  1.39D-04     2.5
                                                     1.79D-04  7.63D-05
 Grid integrated density:      12.999999595441
 Requested integration accuracy:   0.10E-07
 d= 0,ls=0.0,diis     5   -114.5539157362 -2.30D-04  2.64D-04  1.44D-05     2.8
                                                     8.32D-05  8.54D-06
 Grid integrated density:      12.999999595195
 Requested integration accuracy:   0.10E-07
  Resetting Diis
 d= 0,ls=0.0,diis     6   -114.5539447819 -2.90D-05  7.26D-05  5.59D-07     3.2
                                                     1.15D-05  3.41D-07
 Grid integrated density:      12.999999595147
 Requested integration accuracy:   0.10E-07
 d= 0,ls=0.0,diis     7   -114.5539457630 -9.81D-07  1.31D-05  6.07D-08     3.6
                                                     2.66D-06  2.16D-08
 Grid integrated density:      12.999999595129
 Requested integration accuracy:   0.10E-07
 d= 0,ls=0.0,diis     8   -114.5539457878 -2.48D-08  2.63D-06  4.25D-08     3.9
                                                     9.95D-07  4.70D-08


         Total DFT energy =     -114.553945787757
      One electron energy =     -186.757719382876
           Coulomb energy =       71.436136397234
    Exchange-Corr. energy =      -13.239048352791
 Nuclear repulsion energy =       14.006685550675

 Numeric. integr. density =       12.999999595129

     Total iterative time =      3.0s



                    DFT Final Alpha Molecular Orbital Analysis
                    ------------------------------------------

 Vector    1  Occ=1.000000D+00  E=-2.440287D+01
              MO Center=  6.5D-13,  6.5D-13,  4.2D-01, r^2= 1.2D-02
   Bfn.  Coefficient  Atom+Function         Bfn.  Coefficient  Atom+Function  
  ----- ------------  ---------------      ----- ------------  ---------------
    25      0.643086  2 F  s                 24      0.426243  2 F  s          
    27     -0.105071  2 F  s                 26      0.092282  2 F  s          

 Vector    2  Occ=1.000000D+00  E=-4.056760D+00
              MO Center= -2.0D-11, -2.0D-11, -9.4D-01, r^2= 6.8D-02
   Bfn.  Coefficient  Atom+Function         Bfn.  Coefficient  Atom+Function  
  ----- ------------  ---------------      ----- ------------  ---------------
     1      0.544045  1 Be s                  2      0.527879  1 Be s          
     4      0.075417  1 Be s                 29     -0.057069  2 F  s          

 Vector    3  Occ=1.000000D+00  E=-1.230240D+00
              MO Center=  1.4D-10,  1.4D-10,  3.3D-01, r^2= 3.7D-01
   Bfn.  Coefficient  Atom+Function         Bfn.  Coefficient  Atom+Function  
  ----- ------------  ---------------      ----- ------------  ---------------
    26      0.404557  2 F  s                 27      0.394940  2 F  s          
    25     -0.249454  2 F  s                  3      0.143104  1 Be s          
     8     -0.128174  1 Be pz                24     -0.105135  2 F  s          
    28      0.098000  2 F  s                 35     -0.077543  2 F  pz         
    38      0.068437  2 F  pz                53      0.050419  2 F  dzz        

 Vector    4  Occ=1.000000D+00  E=-5.619823D-01
              MO Center=  2.8D-10,  2.8D-10,  4.2D-01, r^2= 5.5D-01
   Bfn.  Coefficient  Atom+Function         Bfn.  Coefficient  Atom+Function  
  ----- ------------  ---------------      ----- ------------  ---------------
    32      0.469694  2 F  pz                35      0.430738  2 F  pz         
     3     -0.347460  1 Be s                 28      0.327857  2 F  s          
     8      0.290099  1 Be pz                27      0.147146  2 F  s          
     4     -0.124276  1 Be s                  2      0.095443  1 Be s          
    59      0.071730  2 F  dzz               23     -0.070590  1 Be dzz        

 Vector    5  Occ=1.000000D+00  E=-5.148169D-01
              MO Center=  2.6D-09,  2.6D-09,  3.3D-01, r^2= 6.2D-01
   Bfn.  Coefficient  Atom+Function         Bfn.  Coefficient  Atom+Function  
  ----- ------------  ---------------      ----- ------------  ---------------
    30      0.339593  2 F  px                31      0.339593  2 F  py         
    33      0.294029  2 F  px                34      0.294029  2 F  py         
    36      0.155386  2 F  px                37      0.155386  2 F  py         
     6     -0.113951  1 Be px                 7     -0.113951  1 Be py         
    20      0.052475  1 Be dxz               22      0.052475  1 Be dyz        

 Vector    6  Occ=1.000000D+00  E=-5.148169D-01
              MO Center=  9.8D-13,  9.8D-13,  3.3D-01, r^2= 6.2D-01
   Bfn.  Coefficient  Atom+Function         Bfn.  Coefficient  Atom+Function  
  ----- ------------  ---------------      ----- ------------  ---------------
    30      0.339593  2 F  px                31     -0.339593  2 F  py         
    33      0.294030  2 F  px                34     -0.294030  2 F  py         
    36      0.155386  2 F  px                37     -0.155386  2 F  py         
     6     -0.113951  1 Be px                 7      0.113951  1 Be py         
    20      0.052475  1 Be dxz               22     -0.052475  1 Be dyz        

 Vector    7  Occ=1.000000D+00  E=-3.181054D-01
              MO Center= -2.5D-09, -2.5D-09, -1.6D+00, r^2= 1.9D+00
   Bfn.  Coefficient  Atom+Function         Bfn.  Coefficient  Atom+Function  
  ----- ------------  ---------------      ----- ------------  ---------------
     3      0.389059  1 Be s                  8      0.388249  1 Be pz         
     4      0.331163  1 Be s                 14     -0.189557  1 Be pz         
     2     -0.166767  1 Be s                  5      0.124787  1 Be s          
    29      0.119140  2 F  s                  1     -0.095483  1 Be s          
    32      0.073790  2 F  pz                35      0.068379  2 F  pz         

 Vector    8  Occ=0.000000D+00  E= 2.820549D-02
              MO Center= -1.6D-11, -1.6D-11, -1.3D+00, r^2= 8.9D+00
   Bfn.  Coefficient  Atom+Function         Bfn.  Coefficient  Atom+Function  
  ----- ------------  ---------------      ----- ------------  ---------------
    15      0.584280  1 Be px                16     -0.584281  1 Be py         
     6     -0.242867  1 Be px                 7      0.242868  1 Be py         
    39     -0.180554  2 F  px                40      0.180554  2 F  py         
    12      0.141820  1 Be px                13     -0.141820  1 Be py         
    20     -0.086955  1 Be dxz               22      0.086955  1 Be dyz        

 Vector    9  Occ=0.000000D+00  E= 2.820549D-02
              MO Center=  8.1D-09,  8.1D-09, -1.3D+00, r^2= 8.9D+00
   Bfn.  Coefficient  Atom+Function         Bfn.  Coefficient  Atom+Function  
  ----- ------------  ---------------      ----- ------------  ---------------
    15      0.584281  1 Be px                16      0.584280  1 Be py         
     6     -0.242868  1 Be px                 7     -0.242867  1 Be py         
    39     -0.180554  2 F  px                40     -0.180554  2 F  py         
    12      0.141820  1 Be px                13      0.141820  1 Be py         
    20     -0.086955  1 Be dxz               22     -0.086955  1 Be dyz        

 Vector   10  Occ=0.000000D+00  E= 5.489530D-02
              MO Center=  1.9D-08,  1.9D-08, -7.3D-01, r^2= 1.7D+01
   Bfn.  Coefficient  Atom+Function         Bfn.  Coefficient  Atom+Function  
  ----- ------------  ---------------      ----- ------------  ---------------
     4      2.019854  1 Be s                 17     -1.742095  1 Be pz         
    14      0.992923  1 Be pz                 5     -0.893473  1 Be s          
    41      0.706569  2 F  pz                29     -0.644211  2 F  s          
     3     -0.248412  1 Be s                 18     -0.126177  1 Be dxx        
    21     -0.126177  1 Be dyy               27      0.098292  2 F  s          

 Vector   11  Occ=0.000000D+00  E= 6.677460D-02
              MO Center= -5.4D-09, -5.4D-09, -2.0D+00, r^2= 1.3D+01
   Bfn.  Coefficient  Atom+Function         Bfn.  Coefficient  Atom+Function  
  ----- ------------  ---------------      ----- ------------  ---------------
    29      4.085014  2 F  s                  5     -2.442757  1 Be s          
    14     -1.413268  1 Be pz                41     -0.786756  2 F  pz         
    28     -0.767110  2 F  s                 17      0.759559  1 Be pz         
    54     -0.501345  2 F  dxx               57     -0.501345  2 F  dyy        
    59     -0.439651  2 F  dzz                4      0.330362  1 Be s          

 Vector   12  Occ=0.000000D+00  E= 9.836609D-02
              MO Center= -1.3D-08, -1.3D-08, -8.3D-01, r^2= 1.3D+01
   Bfn.  Coefficient  Atom+Function         Bfn.  Coefficient  Atom+Function  
  ----- ------------  ---------------      ----- ------------  ---------------
    15     -1.014426  1 Be px                16     -1.014428  1 Be py         
    12      0.992706  1 Be px                13      0.992707  1 Be py         
     6     -0.304054  1 Be px                 7     -0.304054  1 Be py         
    39     -0.154166  2 F  px                40     -0.154166  2 F  py         
    36     -0.142338  2 F  px                37     -0.142338  2 F  py         

 Vector   13  Occ=0.000000D+00  E= 9.836609D-02
              MO Center= -5.3D-11, -5.3D-11, -8.3D-01, r^2= 1.3D+01
   Bfn.  Coefficient  Atom+Function         Bfn.  Coefficient  Atom+Function  
  ----- ------------  ---------------      ----- ------------  ---------------
    15     -1.014428  1 Be px                16      1.014426  1 Be py         
    12      0.992707  1 Be px                13     -0.992706  1 Be py         
     6     -0.304054  1 Be px                 7      0.304054  1 Be py         
    39     -0.154166  2 F  px                40      0.154166  2 F  py         
    36     -0.142338  2 F  px                37      0.142338  2 F  py         

 Vector   14  Occ=0.000000D+00  E= 1.667426D-01
              MO Center=  3.9D-08,  3.9D-08,  1.5D+00, r^2= 9.5D+00
   Bfn.  Coefficient  Atom+Function         Bfn.  Coefficient  Atom+Function  
  ----- ------------  ---------------      ----- ------------  ---------------
     4      8.425915  1 Be s                 29     -7.907785  2 F  s          
    41      3.766598  2 F  pz                14      2.269158  1 Be pz         
    28      1.561256  2 F  s                 17     -1.405044  1 Be pz         
     5     -1.311904  1 Be s                 54      0.765686  2 F  dxx        
    57      0.765686  2 F  dyy                3     -0.645127  1 Be s          

 Vector   15  Occ=0.000000D+00  E= 1.770775D-01
              MO Center=  3.9D-08,  3.9D-08, -1.0D+00, r^2= 1.0D+01
   Bfn.  Coefficient  Atom+Function         Bfn.  Coefficient  Atom+Function  
  ----- ------------  ---------------      ----- ------------  ---------------
     4      5.959323  1 Be s                 29     -3.687776  2 F  s          
    14      3.500315  1 Be pz                17     -1.773129  1 Be pz         
     5     -1.266622  1 Be s                 41      1.061118  2 F  pz         
     3     -0.864469  1 Be s                 18     -0.248901  1 Be dxx        
    21     -0.248901  1 Be dyy               23     -0.234045  1 Be dzz        

 Vector   16  Occ=0.000000D+00  E= 1.909272D-01
              MO Center= -6.0D-08, -6.0D-08,  3.7D-01, r^2= 9.1D+00
   Bfn.  Coefficient  Atom+Function         Bfn.  Coefficient  Atom+Function  
  ----- ------------  ---------------      ----- ------------  ---------------
    39      1.445730  2 F  px                40      1.445730  2 F  py         
    12     -0.664570  1 Be px                13     -0.664570  1 Be py         
    15     -0.394802  1 Be px                16     -0.394802  1 Be py         
    36     -0.194093  2 F  px                37     -0.194093  2 F  py         
    56     -0.181540  2 F  dxz               58     -0.181540  2 F  dyz        

 Vector   17  Occ=0.000000D+00  E= 1.909272D-01
              MO Center=  1.5D-09,  1.5D-09,  3.7D-01, r^2= 9.1D+00
   Bfn.  Coefficient  Atom+Function         Bfn.  Coefficient  Atom+Function  
  ----- ------------  ---------------      ----- ------------  ---------------
    39      1.445731  2 F  px                40     -1.445730  2 F  py         
    12     -0.664570  1 Be px                13      0.664570  1 Be py         
    15     -0.394801  1 Be px                16      0.394801  1 Be py         
    36     -0.194093  2 F  px                37      0.194093  2 F  py         
    56     -0.181540  2 F  dxz               58      0.181540  2 F  dyz        

 Vector   18  Occ=0.000000D+00  E= 2.951527D-01
              MO Center=  2.2D-08,  2.2D-08, -9.7D-01, r^2= 1.1D+01
   Bfn.  Coefficient  Atom+Function         Bfn.  Coefficient  Atom+Function  
  ----- ------------  ---------------      ----- ------------  ---------------
    29     18.111519  2 F  s                  4     -6.965920  1 Be s          
    14     -4.816010  1 Be pz                28     -4.241333  2 F  s          
    41     -2.915672  2 F  pz                54     -2.174178  2 F  dxx        
    57     -2.174178  2 F  dyy               59     -2.146895  2 F  dzz        
     5     -1.618605  1 Be s                 17      1.102161  1 Be pz         

 Vector   19  Occ=0.000000D+00  E= 3.398973D-01
              MO Center= -6.0D-08, -6.0D-08, -9.1D-01, r^2= 7.1D+00
   Bfn.  Coefficient  Atom+Function         Bfn.  Coefficient  Atom+Function  
  ----- ------------  ---------------      ----- ------------  ---------------
    12      1.666608  1 Be px                13      1.666607  1 Be py         
    15     -0.759402  1 Be px                16     -0.759402  1 Be py         
     6      0.667313  1 Be px                 7      0.667313  1 Be py         
    20      0.433397  1 Be dxz               22      0.433397  1 Be dyz        
    56      0.409279  2 F  dxz               58      0.409279  2 F  dyz        

 Vector   20  Occ=0.000000D+00  E= 3.398973D-01
              MO Center=  8.6D-10,  8.6D-10, -9.1D-01, r^2= 7.1D+00
   Bfn.  Coefficient  Atom+Function         Bfn.  Coefficient  Atom+Function  
  ----- ------------  ---------------      ----- ------------  ---------------
    12      1.666607  1 Be px                13     -1.666607  1 Be py         
    15     -0.759402  1 Be px                16      0.759402  1 Be py         
     6      0.667313  1 Be px                 7     -0.667313  1 Be py         
    20      0.433397  1 Be dxz               22     -0.433397  1 Be dyz        
    56      0.409278  2 F  dxz               58     -0.409279  2 F  dyz        

 Vector   21  Occ=0.000000D+00  E= 3.741522D-01
              MO Center=  3.4D-08,  3.4D-08, -5.2D-01, r^2= 8.2D+00
   Bfn.  Coefficient  Atom+Function         Bfn.  Coefficient  Atom+Function  
  ----- ------------  ---------------      ----- ------------  ---------------
    29    -17.016268  2 F  s                  4     15.816116  1 Be s          
    28      4.924010  2 F  s                  3     -3.940331  1 Be s          
    41      3.518959  2 F  pz                14      3.057150  1 Be pz         
    59      2.005263  2 F  dzz               54      1.934202  2 F  dxx        
    57      1.934202  2 F  dyy                5     -1.721734  1 Be s          

 Vector   22  Occ=0.000000D+00  E= 4.149680D-01
              MO Center= -1.1D-09, -1.1D-09, -7.0D-01, r^2= 2.9D+00
   Bfn.  Coefficient  Atom+Function         Bfn.  Coefficient  Atom+Function  
  ----- ------------  ---------------      ----- ------------  ---------------
    18      0.730993  1 Be dxx               21     -0.730993  1 Be dyy        
    54      0.211721  2 F  dxx               57     -0.211721  2 F  dyy        

 Vector   23  Occ=0.000000D+00  E= 4.149681D-01
              MO Center= -7.6D-09, -7.6D-09, -7.0D-01, r^2= 2.9D+00
   Bfn.  Coefficient  Atom+Function         Bfn.  Coefficient  Atom+Function  
  ----- ------------  ---------------      ----- ------------  ---------------
    19      1.461986  1 Be dxy               55      0.423443  2 F  dxy        

 Vector   24  Occ=0.000000D+00  E= 4.639478D-01
              MO Center=  1.7D-09,  1.7D-09, -8.6D-01, r^2= 6.3D+00
   Bfn.  Coefficient  Atom+Function         Bfn.  Coefficient  Atom+Function  
  ----- ------------  ---------------      ----- ------------  ---------------
     4      9.860231  1 Be s                 29     -5.177336  2 F  s          
    14      3.819986  1 Be pz                 3     -2.579510  1 Be s          
     5     -1.570868  1 Be s                 41      1.417915  2 F  pz         
    17     -1.304336  1 Be pz                18     -1.050155  1 Be dxx        
    21     -1.050155  1 Be dyy                8      0.414488  1 Be pz         

 Vector   25  Occ=0.000000D+00  E= 5.544255D-01
              MO Center= -5.2D-09, -5.2D-09, -9.7D-01, r^2= 3.3D+00
   Bfn.  Coefficient  Atom+Function         Bfn.  Coefficient  Atom+Function  
  ----- ------------  ---------------      ----- ------------  ---------------
    20      1.751643  1 Be dxz               22      1.751643  1 Be dyz        
    12      0.495683  1 Be px                13      0.495682  1 Be py         
    39     -0.463061  2 F  px                40     -0.463061  2 F  py         
    36     -0.456210  2 F  px                37     -0.456210  2 F  py         
     6     -0.220909  1 Be px                 7     -0.220909  1 Be py         

 Vector   26  Occ=0.000000D+00  E= 5.544255D-01
              MO Center=  1.2D-11,  1.2D-11, -9.7D-01, r^2= 3.3D+00
   Bfn.  Coefficient  Atom+Function         Bfn.  Coefficient  Atom+Function  
  ----- ------------  ---------------      ----- ------------  ---------------
    20      1.751643  1 Be dxz               22     -1.751643  1 Be dyz        
    12      0.495683  1 Be px                13     -0.495683  1 Be py         
    39     -0.463061  2 F  px                40      0.463061  2 F  py         
    36     -0.456210  2 F  px                37      0.456210  2 F  py         
     6     -0.220909  1 Be px                 7      0.220909  1 Be py         

 Vector   27  Occ=0.000000D+00  E= 6.490748D-01
              MO Center= -1.3D-09, -1.3D-09,  1.7D-01, r^2= 3.4D+00
   Bfn.  Coefficient  Atom+Function         Bfn.  Coefficient  Atom+Function  
  ----- ------------  ---------------      ----- ------------  ---------------
    54      1.015618  2 F  dxx               57     -1.015618  2 F  dyy        
    18     -0.732344  1 Be dxx               21      0.732344  1 Be dyy        

 Vector   28  Occ=0.000000D+00  E= 6.490748D-01
              MO Center=  3.8D-08,  3.8D-08,  1.7D-01, r^2= 3.4D+00
   Bfn.  Coefficient  Atom+Function         Bfn.  Coefficient  Atom+Function  
  ----- ------------  ---------------      ----- ------------  ---------------
    55      2.031235  2 F  dxy               19     -1.464688  1 Be dxy        
    43      0.028874  2 F  dxy        

 Vector   29  Occ=0.000000D+00  E= 6.747899D-01
              MO Center=  8.1D-09,  8.1D-09,  1.2D+00, r^2= 2.8D+00
   Bfn.  Coefficient  Atom+Function         Bfn.  Coefficient  Atom+Function  
  ----- ------------  ---------------      ----- ------------  ---------------
    29      1.924867  2 F  s                  3     -1.664736  1 Be s          
    59      1.520636  2 F  dzz               41     -1.407586  2 F  pz         
     4     -1.054317  1 Be s                 54     -0.765118  2 F  dxx        
    57     -0.765118  2 F  dyy               28     -0.327355  2 F  s          
     8      0.300310  1 Be pz                35     -0.257227  2 F  pz         

 Vector   30  Occ=0.000000D+00  E= 7.343253D-01
              MO Center=  4.1D-07,  4.1D-07, -1.5D-03, r^2= 6.6D+00
   Bfn.  Coefficient  Atom+Function         Bfn.  Coefficient  Atom+Function  
  ----- ------------  ---------------      ----- ------------  ---------------
    29     26.140531  2 F  s                  4    -12.590982  1 Be s          
    28     -6.086238  2 F  s                 59     -4.891696  2 F  dzz        
    14     -4.799081  1 Be pz                54     -4.533364  2 F  dxx        
    57     -4.533364  2 F  dyy               41     -3.124762  2 F  pz         
     3      2.776839  1 Be s                 23     -0.966517  1 Be dzz        

 Vector   31  Occ=0.000000D+00  E= 7.384190D-01
              MO Center= -4.5D-07, -4.5D-07,  8.8D-01, r^2= 3.3D+00
   Bfn.  Coefficient  Atom+Function         Bfn.  Coefficient  Atom+Function  
  ----- ------------  ---------------      ----- ------------  ---------------
    56      1.546580  2 F  dxz               58      1.546580  2 F  dyz        
    39     -0.886458  2 F  px                40     -0.886458  2 F  py         
    20      0.663642  1 Be dxz               22      0.663642  1 Be dyz        
     6     -0.599328  1 Be px                 7     -0.599328  1 Be py         
    36      0.404998  2 F  px                37      0.404998  2 F  py         

 Vector   32  Occ=0.000000D+00  E= 7.384192D-01
              MO Center=  2.7D-10,  2.7D-10,  8.8D-01, r^2= 3.3D+00
   Bfn.  Coefficient  Atom+Function         Bfn.  Coefficient  Atom+Function  
  ----- ------------  ---------------      ----- ------------  ---------------
    56      1.546580  2 F  dxz               58     -1.546580  2 F  dyz        
    39     -0.886457  2 F  px                40      0.886457  2 F  py         
    20      0.663641  1 Be dxz               22     -0.663641  1 Be dyz        
     6     -0.599328  1 Be px                 7      0.599328  1 Be py         
    36      0.404998  2 F  px                37     -0.404998  2 F  py         

 Vector   33  Occ=0.000000D+00  E= 8.767211D-01
              MO Center= -8.2D-09, -8.2D-09, -6.5D-01, r^2= 3.2D+00
   Bfn.  Coefficient  Atom+Function         Bfn.  Coefficient  Atom+Function  
  ----- ------------  ---------------      ----- ------------  ---------------
    29      5.523879  2 F  s                 28     -4.361023  2 F  s          
    23      2.317012  1 Be dzz                4     -2.072118  1 Be s          
     8     -1.889429  1 Be pz                54     -1.803209  2 F  dxx        
    57     -1.803209  2 F  dyy                3      1.396584  1 Be s          
    59     -1.042541  2 F  dzz               14      0.694943  1 Be pz         

 Vector   34  Occ=0.000000D+00  E= 1.000172D+00
              MO Center= -1.6D-08, -1.6D-08, -1.9D-01, r^2= 3.4D+00
   Bfn.  Coefficient  Atom+Function         Bfn.  Coefficient  Atom+Function  
  ----- ------------  ---------------      ----- ------------  ---------------
    36     -2.149636  2 F  px                37     -2.149634  2 F  py         
    56      2.152425  2 F  dxz               58      2.152422  2 F  dyz        
    20      2.021621  1 Be dxz               22      2.021619  1 Be dyz        
     6     -1.304111  1 Be px                 7     -1.304109  1 Be py         
    12      0.777461  1 Be px                13      0.777460  1 Be py         

 Vector   35  Occ=0.000000D+00  E= 1.000172D+00
              MO Center= -5.8D-11, -5.8D-11, -1.9D-01, r^2= 3.4D+00
   Bfn.  Coefficient  Atom+Function         Bfn.  Coefficient  Atom+Function  
  ----- ------------  ---------------      ----- ------------  ---------------
    36     -2.149634  2 F  px                37      2.149636  2 F  py         
    56      2.152423  2 F  dxz               58     -2.152425  2 F  dyz        
    20      2.021619  1 Be dxz               22     -2.021622  1 Be dyz        
     6     -1.304109  1 Be px                 7      1.304111  1 Be py         
    12      0.777460  1 Be px                13     -0.777461  1 Be py         

 Vector   36  Occ=0.000000D+00  E= 1.040628D+00
              MO Center=  1.2D-08,  1.2D-08, -1.0D+00, r^2= 4.0D+00
   Bfn.  Coefficient  Atom+Function         Bfn.  Coefficient  Atom+Function  
  ----- ------------  ---------------      ----- ------------  ---------------
     4     14.358587  1 Be s                 29    -10.506331  2 F  s          
    28      3.947742  2 F  s                  3     -2.789905  1 Be s          
    18     -2.668654  1 Be dxx               21     -2.668654  1 Be dyy        
    23     -2.475585  1 Be dzz               14      2.211718  1 Be pz         
    41      1.976690  2 F  pz                 5     -1.838582  1 Be s          

 Vector   37  Occ=0.000000D+00  E= 1.282951D+00
              MO Center= -2.6D-10, -2.6D-10,  2.4D-01, r^2= 2.8D+00
   Bfn.  Coefficient  Atom+Function         Bfn.  Coefficient  Atom+Function  
  ----- ------------  ---------------      ----- ------------  ---------------
     3      7.754388  1 Be s                 38      5.686877  2 F  pz         
    59     -4.241638  2 F  dzz               28     -3.741948  2 F  s          
     8     -3.356548  1 Be pz                29      1.230405  2 F  s          
    35     -1.117060  2 F  pz                54     -0.788344  2 F  dxx        
    57     -0.788344  2 F  dyy               41      0.652192  2 F  pz         

 Vector   38  Occ=0.000000D+00  E= 1.652470D+00
              MO Center=  1.4D-09,  1.4D-09,  4.7D-01, r^2= 3.3D+00
   Bfn.  Coefficient  Atom+Function         Bfn.  Coefficient  Atom+Function  
  ----- ------------  ---------------      ----- ------------  ---------------
    29     21.128480  2 F  s                  4     -9.223794  1 Be s          
    54     -5.400114  2 F  dxx               57     -5.400114  2 F  dyy        
    59     -4.510755  2 F  dzz               14     -2.616003  1 Be pz         
    26     -2.371719  2 F  s                 41     -2.333105  2 F  pz         
    53     -1.773703  2 F  dzz               28      1.747553  2 F  s          

 Vector   39  Occ=0.000000D+00  E= 2.264581D+00
              MO Center= -4.6D-10, -4.6D-10,  3.5D-01, r^2= 9.5D-01
   Bfn.  Coefficient  Atom+Function         Bfn.  Coefficient  Atom+Function  
  ----- ------------  ---------------      ----- ------------  ---------------
    50      1.340552  2 F  dxz               52      1.340552  2 F  dyz        
    56     -0.644469  2 F  dxz               58     -0.644469  2 F  dyz        
    12     -0.234487  1 Be px                13     -0.234487  1 Be py         
    33     -0.210052  2 F  px                34     -0.210052  2 F  py         
    39      0.102508  2 F  px                40      0.102508  2 F  py         

 Vector   40  Occ=0.000000D+00  E= 2.264581D+00
              MO Center= -3.5D-11, -3.5D-11,  3.5D-01, r^2= 9.5D-01
   Bfn.  Coefficient  Atom+Function         Bfn.  Coefficient  Atom+Function  
  ----- ------------  ---------------      ----- ------------  ---------------
    50      1.340552  2 F  dxz               52     -1.340552  2 F  dyz        
    56     -0.644469  2 F  dxz               58      0.644469  2 F  dyz        
    12     -0.234487  1 Be px                13      0.234487  1 Be py         
    33     -0.210053  2 F  px                34      0.210053  2 F  py         
    39      0.102508  2 F  px                40     -0.102508  2 F  py         

 Vector   41  Occ=0.000000D+00  E= 2.289318D+00
              MO Center=  8.9D-11,  8.9D-11,  4.3D-01, r^2= 8.2D-01
   Bfn.  Coefficient  Atom+Function         Bfn.  Coefficient  Atom+Function  
  ----- ------------  ---------------      ----- ------------  ---------------
    48      0.943148  2 F  dxx               51     -0.943148  2 F  dyy        
    54     -0.423052  2 F  dxx               57      0.423052  2 F  dyy        
    18      0.089444  1 Be dxx               21     -0.089444  1 Be dyy        

 Vector   42  Occ=0.000000D+00  E= 2.289319D+00
              MO Center=  3.6D-09,  3.6D-09,  4.3D-01, r^2= 8.2D-01
   Bfn.  Coefficient  Atom+Function         Bfn.  Coefficient  Atom+Function  
  ----- ------------  ---------------      ----- ------------  ---------------
    49      1.886296  2 F  dxy               55     -0.846104  2 F  dxy        
    19      0.178888  1 Be dxy               64     -0.038988  2 F  fxyz       

 Vector   43  Occ=0.000000D+00  E= 2.638466D+00
              MO Center= -2.0D-09, -2.0D-09,  5.2D-01, r^2= 1.1D+00
   Bfn.  Coefficient  Atom+Function         Bfn.  Coefficient  Atom+Function  
  ----- ------------  ---------------      ----- ------------  ---------------
    29      3.441048  2 F  s                  3     -3.119222  1 Be s          
    38     -3.026268  2 F  pz                28      2.777405  2 F  s          
     4     -2.665547  1 Be s                  8      2.179860  1 Be pz         
    35      1.233393  2 F  pz                14     -0.947496  1 Be pz         
    53      0.905037  2 F  dzz               48     -0.728562  2 F  dxx        

 Vector   44  Occ=0.000000D+00  E= 2.777209D+00
              MO Center= -5.3D-09, -5.3D-09,  4.4D-01, r^2= 1.3D+00
   Bfn.  Coefficient  Atom+Function         Bfn.  Coefficient  Atom+Function  
  ----- ------------  ---------------      ----- ------------  ---------------
    33      2.003713  2 F  px                34      2.003711  2 F  py         
    36     -1.197831  2 F  px                37     -1.197830  2 F  py         
    30     -0.705791  2 F  px                31     -0.705791  2 F  py         
    60     -0.509063  2 F  fxxx              61     -0.509062  2 F  fxxy       
    63     -0.509063  2 F  fxyy              66     -0.509062  2 F  fyyy       

 Vector   45  Occ=0.000000D+00  E= 2.777209D+00
              MO Center= -1.8D-10, -1.8D-10,  4.4D-01, r^2= 1.3D+00
   Bfn.  Coefficient  Atom+Function         Bfn.  Coefficient  Atom+Function  
  ----- ------------  ---------------      ----- ------------  ---------------
    33      2.003711  2 F  px                34     -2.003713  2 F  py         
    36     -1.197830  2 F  px                37      1.197831  2 F  py         
    30     -0.705791  2 F  px                31      0.705791  2 F  py         
    60     -0.509062  2 F  fxxx              61      0.509063  2 F  fxxy       
    63     -0.509062  2 F  fxyy              66      0.509063  2 F  fyyy       

 Vector   46  Occ=0.000000D+00  E= 2.863707D+00
              MO Center= -1.8D-09, -1.8D-09, -5.9D-02, r^2= 1.2D+00
   Bfn.  Coefficient  Atom+Function         Bfn.  Coefficient  Atom+Function  
  ----- ------------  ---------------      ----- ------------  ---------------
    35      2.851593  2 F  pz                27      2.800472  2 F  s          
     4      2.245176  1 Be s                 28     -2.064893  2 F  s          
     8     -1.820602  1 Be pz                53     -1.478007  2 F  dzz        
    26     -1.189086  2 F  s                  3      1.059970  1 Be s          
    32     -0.947077  2 F  pz                18     -0.737454  1 Be dxx        

 Vector   47  Occ=0.000000D+00  E= 3.814241D+00
              MO Center=  6.4D-11,  6.4D-11,  5.6D-01, r^2= 1.6D+00
   Bfn.  Coefficient  Atom+Function         Bfn.  Coefficient  Atom+Function  
  ----- ------------  ---------------      ----- ------------  ---------------
    29     11.981160  2 F  s                 27     10.441956  2 F  s          
    26     -6.177154  2 F  s                 48     -5.356736  2 F  dxx        
    51     -5.356736  2 F  dyy               53     -5.154909  2 F  dzz        
     4     -4.350646  1 Be s                 28      3.813306  2 F  s          
    59     -3.723842  2 F  dzz               54     -3.647993  2 F  dxx        

 Vector   48  Occ=0.000000D+00  E= 5.525994D+00
              MO Center= -3.1D-11, -3.1D-11, -8.8D-01, r^2= 4.3D-01
   Bfn.  Coefficient  Atom+Function         Bfn.  Coefficient  Atom+Function  
  ----- ------------  ---------------      ----- ------------  ---------------
     9      0.748301  1 Be px                10      0.748300  1 Be py         
     6      0.691356  1 Be px                 7      0.691354  1 Be py         
    56     -0.655943  2 F  dxz               58     -0.655941  2 F  dyz        
    20     -0.609788  1 Be dxz               22     -0.609786  1 Be dyz        
    36      0.525679  2 F  px                37      0.525678  2 F  py         

 Vector   49  Occ=0.000000D+00  E= 5.525994D+00
              MO Center= -1.8D-12, -1.8D-12, -8.8D-01, r^2= 4.3D-01
   Bfn.  Coefficient  Atom+Function         Bfn.  Coefficient  Atom+Function  
  ----- ------------  ---------------      ----- ------------  ---------------
     9      0.748300  1 Be px                10     -0.748301  1 Be py         
     6      0.691354  1 Be px                 7     -0.691356  1 Be py         
    56     -0.655941  2 F  dxz               58      0.655943  2 F  dyz        
    20     -0.609786  1 Be dxz               22      0.609788  1 Be dyz        
    36      0.525678  2 F  px                37     -0.525679  2 F  py         

 Vector   50  Occ=0.000000D+00  E= 6.312215D+00
              MO Center=  3.4D-13,  3.4D-13, -7.0D-01, r^2= 7.5D-01
   Bfn.  Coefficient  Atom+Function         Bfn.  Coefficient  Atom+Function  
  ----- ------------  ---------------      ----- ------------  ---------------
    27      3.922095  2 F  s                 28     -3.619272  2 F  s          
     3      3.444051  1 Be s                  8     -2.735115  1 Be pz         
    38      2.289816  2 F  pz                26     -1.857318  2 F  s          
    53     -1.134108  2 F  dzz               23      1.112312  1 Be dzz        
    59     -1.106949  2 F  dzz               11     -1.025739  1 Be pz         

 Vector   51  Occ=0.000000D+00  E= 6.872153D+00
              MO Center=  1.3D-11,  1.3D-11,  4.2D-01, r^2= 3.3D-01
   Bfn.  Coefficient  Atom+Function         Bfn.  Coefficient  Atom+Function  
  ----- ------------  ---------------      ----- ------------  ---------------
    62      1.937412  2 F  fxxz              67     -1.937412  2 F  fyyz       
    18      0.035736  1 Be dxx               21     -0.035736  1 Be dyy        

 Vector   52  Occ=0.000000D+00  E= 6.872153D+00
              MO Center=  1.2D-11,  1.2D-11,  4.2D-01, r^2= 3.3D-01
   Bfn.  Coefficient  Atom+Function         Bfn.  Coefficient  Atom+Function  
  ----- ------------  ---------------      ----- ------------  ---------------
    64      3.874825  2 F  fxyz              19      0.071472  1 Be dxy        
    55     -0.046804  2 F  dxy        

 Vector   53  Occ=0.000000D+00  E= 6.889359D+00
              MO Center= -1.9D-12, -1.8D-12,  4.2D-01, r^2= 3.3D-01
   Bfn.  Coefficient  Atom+Function         Bfn.  Coefficient  Atom+Function  
  ----- ------------  ---------------      ----- ------------  ---------------
    63      2.069088  2 F  fxyy              61     -1.159269  2 F  fxxy       
    60     -0.689688  2 F  fxxx              66      0.386419  2 F  fyyy       

 Vector   54  Occ=0.000000D+00  E= 6.889359D+00
              MO Center= -1.8D-12, -1.8D-12,  4.2D-01, r^2= 3.3D-01
   Bfn.  Coefficient  Atom+Function         Bfn.  Coefficient  Atom+Function  
  ----- ------------  ---------------      ----- ------------  ---------------
    61      2.069088  2 F  fxxy              63      1.159269  2 F  fxyy       
    66     -0.689688  2 F  fyyy              60     -0.386419  2 F  fxxx       

 Vector   55  Occ=0.000000D+00  E= 6.908308D+00
              MO Center=  4.8D-11,  4.8D-11,  4.1D-01, r^2= 3.8D-01
   Bfn.  Coefficient  Atom+Function         Bfn.  Coefficient  Atom+Function  
  ----- ------------  ---------------      ----- ------------  ---------------
    65      1.670764  2 F  fxzz              68      1.670771  2 F  fyzz       
    60     -0.489552  2 F  fxxx              61     -0.489530  2 F  fxxy       
    63     -0.489528  2 F  fxyy              66     -0.489553  2 F  fyyy       
    56     -0.283008  2 F  dxz               58     -0.283009  2 F  dyz        
    20     -0.253866  1 Be dxz               22     -0.253867  1 Be dyz        

 Vector   56  Occ=0.000000D+00  E= 6.908308D+00
              MO Center=  4.5D-13,  4.5D-13,  4.1D-01, r^2= 3.8D-01
   Bfn.  Coefficient  Atom+Function         Bfn.  Coefficient  Atom+Function  
  ----- ------------  ---------------      ----- ------------  ---------------
    65      1.670771  2 F  fxzz              68     -1.670764  2 F  fyzz       
    60     -0.489553  2 F  fxxx              61      0.489528  2 F  fxxy       
    63     -0.489530  2 F  fxyy              66      0.489552  2 F  fyyy       
    56     -0.283009  2 F  dxz               58      0.283008  2 F  dyz        
    20     -0.253867  1 Be dxz               22      0.253866  1 Be dyz        

 Vector   57  Occ=0.000000D+00  E= 7.052981D+00
              MO Center= -3.9D-11, -3.9D-11,  3.1D-01, r^2= 5.9D-01
   Bfn.  Coefficient  Atom+Function         Bfn.  Coefficient  Atom+Function  
  ----- ------------  ---------------      ----- ------------  ---------------
    27      2.466296  2 F  s                  3      2.334266  1 Be s          
    29     -2.334747  2 F  s                  4      2.309243  1 Be s          
    28     -1.965795  2 F  s                 62     -1.803358  2 F  fxxz       
    67     -1.803358  2 F  fyyz               8     -1.672615  1 Be pz         
    38      1.640742  2 F  pz                26     -1.065501  2 F  s          

 Vector   58  Occ=0.000000D+00  E= 7.538730D+00
              MO Center= -3.0D-11, -3.0D-11,  4.0D-01, r^2= 5.9D-01
   Bfn.  Coefficient  Atom+Function         Bfn.  Coefficient  Atom+Function  
  ----- ------------  ---------------      ----- ------------  ---------------
    33      1.825012  2 F  px                34     -1.824956  2 F  py         
    65     -1.445957  2 F  fxzz              68      1.445913  2 F  fyzz       
    60     -1.320957  2 F  fxxx              61      1.320917  2 F  fxxy       
    63     -1.320958  2 F  fxyy              66      1.320917  2 F  fyyy       
    36     -0.730921  2 F  px                37      0.730899  2 F  py         

 Vector   59  Occ=0.000000D+00  E= 7.538730D+00
              MO Center= -9.5D-11, -9.5D-11,  4.0D-01, r^2= 5.9D-01
   Bfn.  Coefficient  Atom+Function         Bfn.  Coefficient  Atom+Function  
  ----- ------------  ---------------      ----- ------------  ---------------
    33      1.824956  2 F  px                34      1.825012  2 F  py         
    65     -1.445913  2 F  fxzz              68     -1.445957  2 F  fyzz       
    60     -1.320917  2 F  fxxx              61     -1.320958  2 F  fxxy       
    63     -1.320917  2 F  fxyy              66     -1.320957  2 F  fyyy       
    36     -0.730899  2 F  px                37     -0.730921  2 F  py         

 Vector   60  Occ=0.000000D+00  E= 7.729364D+00
              MO Center= -7.2D-11, -7.2D-11, -2.9D-02, r^2= 9.3D-01
   Bfn.  Coefficient  Atom+Function         Bfn.  Coefficient  Atom+Function  
  ----- ------------  ---------------      ----- ------------  ---------------
    35      2.581679  2 F  pz                27      2.334426  2 F  s          
     4      2.037610  1 Be s                 38     -1.973204  2 F  pz         
    69     -1.873891  2 F  fzzz               3     -1.809724  1 Be s          
    62     -1.438879  2 F  fxxz              67     -1.438879  2 F  fyyz       
    26     -1.233348  2 F  s                 28      1.207287  2 F  s          

 Vector   61  Occ=0.000000D+00  E= 8.187831D+00
              MO Center=  1.7D-10,  1.7D-10, -4.0D-01, r^2= 1.1D+00
   Bfn.  Coefficient  Atom+Function         Bfn.  Coefficient  Atom+Function  
  ----- ------------  ---------------      ----- ------------  ---------------
    27      9.352163  2 F  s                 26     -4.860742  2 F  s          
     4      4.273049  1 Be s                 53     -2.852137  2 F  dzz        
    29     -2.660940  2 F  s                 48     -2.366615  2 F  dxx        
    51     -2.366615  2 F  dyy                3      1.646742  1 Be s          
     2     -1.634576  1 Be s                 38      1.385501  2 F  pz         

 Vector   62  Occ=0.000000D+00  E= 8.438348D+00
              MO Center=  1.5D-09,  1.5D-09,  4.2D-01, r^2= 2.8D-01
   Bfn.  Coefficient  Atom+Function         Bfn.  Coefficient  Atom+Function  
  ----- ------------  ---------------      ----- ------------  ---------------
    42      1.018200  2 F  dxx               45     -1.018200  2 F  dyy        
    48     -0.585465  2 F  dxx               51      0.585465  2 F  dyy        
    54      0.167348  2 F  dxx               57     -0.167348  2 F  dyy        
    18     -0.032620  1 Be dxx               21      0.032620  1 Be dyy        

 Vector   63  Occ=0.000000D+00  E= 8.438348D+00
              MO Center=  4.3D-09,  4.3D-09,  4.2D-01, r^2= 2.8D-01
   Bfn.  Coefficient  Atom+Function         Bfn.  Coefficient  Atom+Function  
  ----- ------------  ---------------      ----- ------------  ---------------
    43      2.036400  2 F  dxy               49     -1.170931  2 F  dxy        
    55      0.334696  2 F  dxy               19     -0.065239  1 Be dxy        

 Vector   64  Occ=0.000000D+00  E= 8.438686D+00
              MO Center= -4.5D-09, -4.5D-09,  4.2D-01, r^2= 3.0D-01
   Bfn.  Coefficient  Atom+Function         Bfn.  Coefficient  Atom+Function  
  ----- ------------  ---------------      ----- ------------  ---------------
    44      1.442148  2 F  dxz               46      1.442145  2 F  dyz        
    50     -0.838308  2 F  dxz               52     -0.838307  2 F  dyz        
    56      0.244746  2 F  dxz               58      0.244746  2 F  dyz        
    12      0.083609  1 Be px                13      0.083609  1 Be py         
    39     -0.058604  2 F  px                40     -0.058604  2 F  py         

 Vector   65  Occ=0.000000D+00  E= 8.438686D+00
              MO Center= -1.5D-09, -1.5D-09,  4.2D-01, r^2= 3.0D-01
   Bfn.  Coefficient  Atom+Function         Bfn.  Coefficient  Atom+Function  
  ----- ------------  ---------------      ----- ------------  ---------------
    44      1.442145  2 F  dxz               46     -1.442148  2 F  dyz        
    50     -0.838307  2 F  dxz               52      0.838308  2 F  dyz        
    56      0.244746  2 F  dxz               58     -0.244746  2 F  dyz        
    12      0.083609  1 Be px                13     -0.083609  1 Be py         
    39     -0.058604  2 F  px                40      0.058604  2 F  py         

 Vector   66  Occ=0.000000D+00  E= 8.792957D+00
              MO Center= -2.8D-11, -2.8D-11,  2.4D-01, r^2= 5.1D-01
   Bfn.  Coefficient  Atom+Function         Bfn.  Coefficient  Atom+Function  
  ----- ------------  ---------------      ----- ------------  ---------------
    28      1.793249  2 F  s                 47     -1.114174  2 F  dzz        
     8      0.968970  1 Be pz                 3     -0.907230  1 Be s          
    38     -0.682840  2 F  pz                53      0.668681  2 F  dzz        
     2     -0.650228  1 Be s                 23     -0.618300  1 Be dzz        
     4      0.597508  1 Be s                 62      0.572122  2 F  fxxz       

 Vector   67  Occ=0.000000D+00  E= 8.950750D+00
              MO Center= -1.3D-10, -1.3D-10,  3.5D-01, r^2= 8.0D-01
   Bfn.  Coefficient  Atom+Function         Bfn.  Coefficient  Atom+Function  
  ----- ------------  ---------------      ----- ------------  ---------------
    27     40.780198  2 F  s                 26    -21.981533  2 F  s          
    48    -11.700001  2 F  dxx               51    -11.700001  2 F  dyy        
    53    -11.506686  2 F  dzz               29      6.877855  2 F  s          
     4     -3.501052  1 Be s                 54     -1.811981  2 F  dxx        
    57     -1.811981  2 F  dyy               59     -1.585905  2 F  dzz        

 Vector   68  Occ=0.000000D+00  E= 2.239577D+01
              MO Center= -1.4D-11, -1.4D-11,  4.2D-01, r^2= 2.6D-01
   Bfn.  Coefficient  Atom+Function         Bfn.  Coefficient  Atom+Function  
  ----- ------------  ---------------      ----- ------------  ---------------
    27     15.350257  2 F  s                 48     -4.892642  2 F  dxx        
    51     -4.892642  2 F  dyy               53     -4.870413  2 F  dzz        
    42     -3.299634  2 F  dxx               45     -3.299634  2 F  dyy        
    47     -3.306371  2 F  dzz               29      3.257494  2 F  s          
    25     -1.964650  2 F  s                  4     -1.235963  1 Be s          

 Vector   69  Occ=0.000000D+00  E= 9.559164D+01
              MO Center= -2.9D-13, -2.9D-13,  4.2D-01, r^2= 5.9D-02
   Bfn.  Coefficient  Atom+Function         Bfn.  Coefficient  Atom+Function  
  ----- ------------  ---------------      ----- ------------  ---------------
    26     11.471990  2 F  s                 27     -6.047063  2 F  s          
    25     -4.344758  2 F  s                 42     -2.806836  2 F  dxx        
    45     -2.806836  2 F  dyy               47     -2.809351  2 F  dzz        
    29      1.799833  2 F  s                 24      1.727883  2 F  s          
    28      0.990757  2 F  s                 53      0.703060  2 F  dzz        


                     DFT Final Beta Molecular Orbital Analysis
                     -----------------------------------------

 Vector    1  Occ=1.000000D+00  E=-2.440302D+01
              MO Center=  6.6D-13,  6.6D-13,  4.2D-01, r^2= 1.2D-02
   Bfn.  Coefficient  Atom+Function         Bfn.  Coefficient  Atom+Function  
  ----- ------------  ---------------      ----- ------------  ---------------
    25      0.643078  2 F  s                 24      0.426236  2 F  s          
    27     -0.105138  2 F  s                 26      0.092355  2 F  s          

 Vector    2  Occ=1.000000D+00  E=-4.046403D+00
              MO Center=  2.6D-12,  2.6D-12, -9.4D-01, r^2= 6.8D-02
   Bfn.  Coefficient  Atom+Function         Bfn.  Coefficient  Atom+Function  
  ----- ------------  ---------------      ----- ------------  ---------------
     1      0.543847  1 Be s                  2      0.528286  1 Be s          
     4      0.075702  1 Be s                 29     -0.056596  2 F  s          
     3      0.025168  1 Be s          

 Vector    3  Occ=1.000000D+00  E=-1.230263D+00
              MO Center=  1.1D-10,  1.1D-10,  3.3D-01, r^2= 3.7D-01
   Bfn.  Coefficient  Atom+Function         Bfn.  Coefficient  Atom+Function  
  ----- ------------  ---------------      ----- ------------  ---------------
    26      0.405112  2 F  s                 27      0.394168  2 F  s          
    25     -0.249600  2 F  s                  3      0.139087  1 Be s          
     8     -0.125233  1 Be pz                24     -0.105194  2 F  s          
    28      0.101746  2 F  s                 35     -0.077005  2 F  pz         
    38      0.066928  2 F  pz                 4      0.053128  1 Be s          

 Vector    4  Occ=1.000000D+00  E=-5.598274D-01
              MO Center=  1.1D-10,  1.1D-10,  4.2D-01, r^2= 5.3D-01
   Bfn.  Coefficient  Atom+Function         Bfn.  Coefficient  Atom+Function  
  ----- ------------  ---------------      ----- ------------  ---------------
    32      0.471259  2 F  pz                35      0.432584  2 F  pz         
     3     -0.323627  1 Be s                 28      0.317226  2 F  s          
     8      0.293252  1 Be pz                27      0.147659  2 F  s          
     4     -0.136666  1 Be s                  2      0.091743  1 Be s          
    29      0.070032  2 F  s                 23     -0.069637  1 Be dzz        

 Vector    5  Occ=1.000000D+00  E=-5.147401D-01
              MO Center=  2.1D-09,  2.1D-09,  3.5D-01, r^2= 5.9D-01
   Bfn.  Coefficient  Atom+Function         Bfn.  Coefficient  Atom+Function  
  ----- ------------  ---------------      ----- ------------  ---------------
    30      0.342377  2 F  px                31      0.342377  2 F  py         
    33      0.296987  2 F  px                34      0.296987  2 F  py         
    36      0.156119  2 F  px                37      0.156119  2 F  py         
     6     -0.100732  1 Be px                 7     -0.100732  1 Be py         
    20      0.058217  1 Be dxz               22      0.058217  1 Be dyz        

 Vector    6  Occ=1.000000D+00  E=-5.147401D-01
              MO Center= -4.1D-11, -4.1D-11,  3.5D-01, r^2= 5.9D-01
   Bfn.  Coefficient  Atom+Function         Bfn.  Coefficient  Atom+Function  
  ----- ------------  ---------------      ----- ------------  ---------------
    30      0.342377  2 F  px                31     -0.342377  2 F  py         
    33      0.296987  2 F  px                34     -0.296987  2 F  py         
    36      0.156118  2 F  px                37     -0.156118  2 F  py         
     6     -0.100732  1 Be px                 7      0.100732  1 Be py         
    20      0.058217  1 Be dxz               22     -0.058217  1 Be dyz        

 Vector    7  Occ=0.000000D+00  E=-2.182595D-02
              MO Center= -5.3D-09, -5.3D-09, -1.5D+00, r^2= 4.2D+00
   Bfn.  Coefficient  Atom+Function         Bfn.  Coefficient  Atom+Function  
  ----- ------------  ---------------      ----- ------------  ---------------
     5      0.783687  1 Be s                 29     -0.730878  2 F  s          
     4      0.311711  1 Be s                  8      0.267117  1 Be pz         
    28      0.238990  2 F  s                  3      0.225851  1 Be s          
     2     -0.132130  1 Be s                 59      0.121681  2 F  dzz        
    17     -0.113284  1 Be pz                41      0.101165  2 F  pz         

 Vector    8  Occ=0.000000D+00  E= 4.751129D-02
              MO Center=  1.9D-08,  1.9D-08, -1.2D+00, r^2= 1.3D+01
   Bfn.  Coefficient  Atom+Function         Bfn.  Coefficient  Atom+Function  
  ----- ------------  ---------------      ----- ------------  ---------------
    15      0.847494  1 Be px                16      0.847499  1 Be py         
     6     -0.144301  1 Be px                 7     -0.144302  1 Be py         
    39     -0.138991  2 F  px                40     -0.138992  2 F  py         
    12     -0.122902  1 Be px                13     -0.122903  1 Be py         
    33     -0.064794  2 F  px                34     -0.064795  2 F  py         

 Vector    9  Occ=0.000000D+00  E= 4.751129D-02
              MO Center= -5.3D-11, -5.3D-11, -1.2D+00, r^2= 1.3D+01
   Bfn.  Coefficient  Atom+Function         Bfn.  Coefficient  Atom+Function  
  ----- ------------  ---------------      ----- ------------  ---------------
    15      0.847499  1 Be px                16     -0.847494  1 Be py         
     6     -0.144302  1 Be px                 7      0.144301  1 Be py         
    39     -0.138992  2 F  px                40      0.138991  2 F  py         
    12     -0.122903  1 Be px                13      0.122902  1 Be py         
    33     -0.064795  2 F  px                34      0.064794  2 F  py         

 Vector   10  Occ=0.000000D+00  E= 5.875291D-02
              MO Center=  1.4D-08,  1.4D-08, -1.0D+00, r^2= 1.8D+01
   Bfn.  Coefficient  Atom+Function         Bfn.  Coefficient  Atom+Function  
  ----- ------------  ---------------      ----- ------------  ---------------
     4      2.285823  1 Be s                 17     -1.891956  1 Be pz         
    14      1.298513  1 Be pz                29     -1.254877  2 F  s          
    41      0.821761  2 F  pz                 5     -0.721608  1 Be s          
     3     -0.241945  1 Be s                 18     -0.115646  1 Be dxx        
    21     -0.115646  1 Be dyy               28      0.089016  2 F  s          

 Vector   11  Occ=0.000000D+00  E= 8.746823D-02
              MO Center= -3.3D-08, -3.3D-08, -1.6D+00, r^2= 1.3D+01
   Bfn.  Coefficient  Atom+Function         Bfn.  Coefficient  Atom+Function  
  ----- ------------  ---------------      ----- ------------  ---------------
    29      4.526723  2 F  s                  5     -2.511184  1 Be s          
    14     -1.485415  1 Be pz                41     -0.886824  2 F  pz         
    28     -0.810211  2 F  s                  4      0.667579  1 Be s          
    17      0.633938  1 Be pz                54     -0.570601  2 F  dxx        
    57     -0.570601  2 F  dyy               59     -0.474742  2 F  dzz        

 Vector   12  Occ=0.000000D+00  E= 1.272639D-01
              MO Center=  1.2D-08,  1.2D-08, -8.2D-01, r^2= 8.8D+00
   Bfn.  Coefficient  Atom+Function         Bfn.  Coefficient  Atom+Function  
  ----- ------------  ---------------      ----- ------------  ---------------
    12      1.125756  1 Be px                13      1.125759  1 Be py         
    15     -0.834899  1 Be px                16     -0.834901  1 Be py         
     6     -0.344313  1 Be px                 7     -0.344314  1 Be py         
    39     -0.259280  2 F  px                40     -0.259281  2 F  py         
    36     -0.191779  2 F  px                37     -0.191780  2 F  py         

 Vector   13  Occ=0.000000D+00  E= 1.272639D-01
              MO Center= -5.7D-10, -5.7D-10, -8.2D-01, r^2= 8.8D+00
   Bfn.  Coefficient  Atom+Function         Bfn.  Coefficient  Atom+Function  
  ----- ------------  ---------------      ----- ------------  ---------------
    12      1.125759  1 Be px                13     -1.125756  1 Be py         
    15     -0.834901  1 Be px                16      0.834899  1 Be py         
     6     -0.344314  1 Be px                 7      0.344313  1 Be py         
    39     -0.259281  2 F  px                40      0.259280  2 F  py         
    36     -0.191780  2 F  px                37      0.191779  2 F  py         

 Vector   14  Occ=0.000000D+00  E= 1.679412D-01
              MO Center=  4.8D-08,  4.8D-08,  1.4D+00, r^2= 1.0D+01
   Bfn.  Coefficient  Atom+Function         Bfn.  Coefficient  Atom+Function  
  ----- ------------  ---------------      ----- ------------  ---------------
     4      9.148863  1 Be s                 29     -7.932543  2 F  s          
    41      3.812572  2 F  pz                14      2.511015  1 Be pz         
     5     -1.604890  1 Be s                 17     -1.551455  1 Be pz         
    28      1.522168  2 F  s                  3     -0.819849  1 Be s          
    54      0.719714  2 F  dxx               57      0.719714  2 F  dyy        

 Vector   15  Occ=0.000000D+00  E= 1.928354D-01
              MO Center=  5.9D-08,  5.9D-08,  3.6D-01, r^2= 9.2D+00
   Bfn.  Coefficient  Atom+Function         Bfn.  Coefficient  Atom+Function  
  ----- ------------  ---------------      ----- ------------  ---------------
    39      1.443091  2 F  px                40      1.443092  2 F  py         
    12     -0.630525  1 Be px                13     -0.630525  1 Be py         
    15     -0.418372  1 Be px                16     -0.418372  1 Be py         
    36     -0.190913  2 F  px                37     -0.190913  2 F  py         
    56     -0.179436  2 F  dxz               58     -0.179436  2 F  dyz        

 Vector   16  Occ=0.000000D+00  E= 1.928354D-01
              MO Center=  1.5D-09,  1.5D-09,  3.6D-01, r^2= 9.2D+00
   Bfn.  Coefficient  Atom+Function         Bfn.  Coefficient  Atom+Function  
  ----- ------------  ---------------      ----- ------------  ---------------
    39      1.443092  2 F  px                40     -1.443091  2 F  py         
    12     -0.630525  1 Be px                13      0.630525  1 Be py         
    15     -0.418372  1 Be px                16      0.418371  1 Be py         
    36     -0.190913  2 F  px                37      0.190913  2 F  py         
    56     -0.179436  2 F  dxz               58      0.179436  2 F  dyz        

 Vector   17  Occ=0.000000D+00  E= 2.002141D-01
              MO Center= -8.7D-08, -8.7D-08, -9.7D-01, r^2= 1.0D+01
   Bfn.  Coefficient  Atom+Function         Bfn.  Coefficient  Atom+Function  
  ----- ------------  ---------------      ----- ------------  ---------------
     4      4.629089  1 Be s                 14      3.303132  1 Be pz         
    29     -2.350123  2 F  s                 17     -1.563642  1 Be pz         
     5     -0.985135  1 Be s                  3     -0.774845  1 Be s          
    41      0.514901  2 F  pz                28     -0.325930  2 F  s          
    18     -0.245568  1 Be dxx               21     -0.245568  1 Be dyy        

 Vector   18  Occ=0.000000D+00  E= 3.110930D-01
              MO Center=  1.0D-08,  1.0D-08, -6.6D-01, r^2= 1.1D+01
   Bfn.  Coefficient  Atom+Function         Bfn.  Coefficient  Atom+Function  
  ----- ------------  ---------------      ----- ------------  ---------------
    29     21.044736  2 F  s                  4    -10.072109  1 Be s          
    14     -5.412815  1 Be pz                28     -5.026388  2 F  s          
    41     -3.558909  2 F  pz                54     -2.489791  2 F  dxx        
    57     -2.489791  2 F  dyy               59     -2.496541  2 F  dzz        
    17      1.241646  1 Be pz                 5     -1.139828  1 Be s          

 Vector   19  Occ=0.000000D+00  E= 3.581305D-01
              MO Center= -5.8D-08, -5.8D-08, -9.0D-01, r^2= 6.5D+00
   Bfn.  Coefficient  Atom+Function         Bfn.  Coefficient  Atom+Function  
  ----- ------------  ---------------      ----- ------------  ---------------
    12      1.598347  1 Be px                13      1.598347  1 Be py         
    15     -0.715897  1 Be px                16     -0.715897  1 Be py         
     6      0.693204  1 Be px                 7      0.693204  1 Be py         
    56      0.414141  2 F  dxz               58      0.414141  2 F  dyz        
    20      0.363416  1 Be dxz               22      0.363416  1 Be dyz        

 Vector   20  Occ=0.000000D+00  E= 3.581306D-01
              MO Center=  1.7D-09,  1.7D-09, -9.0D-01, r^2= 6.5D+00
   Bfn.  Coefficient  Atom+Function         Bfn.  Coefficient  Atom+Function  
  ----- ------------  ---------------      ----- ------------  ---------------
    12      1.598347  1 Be px                13     -1.598347  1 Be py         
    15     -0.715897  1 Be px                16      0.715897  1 Be py         
     6      0.693204  1 Be px                 7     -0.693204  1 Be py         
    56      0.414141  2 F  dxz               58     -0.414140  2 F  dyz        
    20      0.363416  1 Be dxz               22     -0.363416  1 Be dyz        

 Vector   21  Occ=0.000000D+00  E= 4.024132D-01
              MO Center=  4.4D-08,  4.4D-08, -9.1D-01, r^2= 7.8D+00
   Bfn.  Coefficient  Atom+Function         Bfn.  Coefficient  Atom+Function  
  ----- ------------  ---------------      ----- ------------  ---------------
     4     16.065348  1 Be s                 29    -14.821566  2 F  s          
     3     -4.445775  1 Be s                 28      4.156781  2 F  s          
    41      3.196866  2 F  pz                14      3.011935  1 Be pz         
     5     -2.123566  1 Be s                 59      1.632410  2 F  dzz        
    54      1.529385  2 F  dxx               57      1.529385  2 F  dyy        

 Vector   22  Occ=0.000000D+00  E= 4.398831D-01
              MO Center= -1.6D-09, -1.6D-09, -5.9D-01, r^2= 2.9D+00
   Bfn.  Coefficient  Atom+Function         Bfn.  Coefficient  Atom+Function  
  ----- ------------  ---------------      ----- ------------  ---------------
    18      0.673191  1 Be dxx               21     -0.673191  1 Be dyy        
    54      0.288336  2 F  dxx               57     -0.288336  2 F  dyy        

 Vector   23  Occ=0.000000D+00  E= 4.398835D-01
              MO Center= -8.5D-09, -8.5D-09, -5.9D-01, r^2= 2.9D+00
   Bfn.  Coefficient  Atom+Function         Bfn.  Coefficient  Atom+Function  
  ----- ------------  ---------------      ----- ------------  ---------------
    19      1.346381  1 Be dxy               55      0.576672  2 F  dxy        

 Vector   24  Occ=0.000000D+00  E= 4.967033D-01
              MO Center=  2.3D-09,  2.3D-09, -7.6D-01, r^2= 5.2D+00
   Bfn.  Coefficient  Atom+Function         Bfn.  Coefficient  Atom+Function  
  ----- ------------  ---------------      ----- ------------  ---------------
     4      6.204994  1 Be s                 14      2.777321  1 Be pz         
     3     -1.636471  1 Be s                  5     -1.240261  1 Be s          
    17     -1.055253  1 Be pz                29     -0.943237  2 F  s          
    28     -0.860231  2 F  s                 18     -0.841915  1 Be dxx        
    21     -0.841915  1 Be dyy               54     -0.769826  2 F  dxx        

 Vector   25  Occ=0.000000D+00  E= 5.998742D-01
              MO Center= -7.4D-09, -7.4D-09, -9.7D-01, r^2= 3.3D+00
   Bfn.  Coefficient  Atom+Function         Bfn.  Coefficient  Atom+Function  
  ----- ------------  ---------------      ----- ------------  ---------------
    20      1.646752  1 Be dxz               22      1.646752  1 Be dyz        
    12      0.461887  1 Be px                13      0.461887  1 Be py         
    39     -0.410988  2 F  px                40     -0.410988  2 F  py         
    36     -0.369984  2 F  px                37     -0.369984  2 F  py         
    33     -0.101730  2 F  px                34     -0.101730  2 F  py         

 Vector   26  Occ=0.000000D+00  E= 5.998742D-01
              MO Center=  1.6D-10,  1.6D-10, -9.7D-01, r^2= 3.3D+00
   Bfn.  Coefficient  Atom+Function         Bfn.  Coefficient  Atom+Function  
  ----- ------------  ---------------      ----- ------------  ---------------
    20      1.646752  1 Be dxz               22     -1.646752  1 Be dyz        
    12      0.461887  1 Be px                13     -0.461887  1 Be py         
    39     -0.410988  2 F  px                40      0.410988  2 F  py         
    36     -0.369984  2 F  px                37      0.369984  2 F  py         
    33     -0.101730  2 F  px                34      0.101730  2 F  py         

 Vector   27  Occ=0.000000D+00  E= 6.626682D-01
              MO Center= -1.2D-09, -1.2D-09,  6.1D-02, r^2= 3.6D+00
   Bfn.  Coefficient  Atom+Function         Bfn.  Coefficient  Atom+Function  
  ----- ------------  ---------------      ----- ------------  ---------------
    54      0.996401  2 F  dxx               57     -0.996401  2 F  dyy        
    18     -0.785759  1 Be dxx               21      0.785759  1 Be dyy        

 Vector   28  Occ=0.000000D+00  E= 6.626683D-01
              MO Center=  4.9D-08,  4.9D-08,  6.1D-02, r^2= 3.6D+00
   Bfn.  Coefficient  Atom+Function         Bfn.  Coefficient  Atom+Function  
  ----- ------------  ---------------      ----- ------------  ---------------
    55      1.992801  2 F  dxy               19     -1.571518  1 Be dxy        
    43      0.027710  2 F  dxy        

 Vector   29  Occ=0.000000D+00  E= 6.753756D-01
              MO Center=  6.0D-09,  6.0D-09,  1.2D+00, r^2= 2.8D+00
   Bfn.  Coefficient  Atom+Function         Bfn.  Coefficient  Atom+Function  
  ----- ------------  ---------------      ----- ------------  ---------------
     3      1.699741  1 Be s                 59     -1.584649  2 F  dzz        
    29     -1.559050  2 F  s                 41      1.359661  2 F  pz         
     4      0.865686  1 Be s                 54      0.711946  2 F  dxx        
    57      0.711946  2 F  dyy                8     -0.284488  1 Be pz         
    28      0.261160  2 F  s                 14     -0.256987  1 Be pz         

 Vector   30  Occ=0.000000D+00  E= 7.400058D-01
              MO Center=  1.2D-07,  1.2D-07,  8.5D-01, r^2= 3.4D+00
   Bfn.  Coefficient  Atom+Function         Bfn.  Coefficient  Atom+Function  
  ----- ------------  ---------------      ----- ------------  ---------------
    56      1.509716  2 F  dxz               58      1.509716  2 F  dyz        
    39     -0.894638  2 F  px                40     -0.894638  2 F  py         
    20      0.683708  1 Be dxz               22      0.683708  1 Be dyz        
     6     -0.583580  1 Be px                 7     -0.583580  1 Be py         
    36      0.428510  2 F  px                37      0.428510  2 F  py         

 Vector   31  Occ=0.000000D+00  E= 7.400059D-01
              MO Center=  2.0D-10,  2.0D-10,  8.5D-01, r^2= 3.4D+00
   Bfn.  Coefficient  Atom+Function         Bfn.  Coefficient  Atom+Function  
  ----- ------------  ---------------      ----- ------------  ---------------
    56      1.509716  2 F  dxz               58     -1.509716  2 F  dyz        
    39     -0.894638  2 F  px                40      0.894638  2 F  py         
    20      0.683707  1 Be dxz               22     -0.683707  1 Be dyz        
     6     -0.583580  1 Be px                 7      0.583580  1 Be py         
    36      0.428511  2 F  px                37     -0.428511  2 F  py         

 Vector   32  Occ=0.000000D+00  E= 7.518185D-01
              MO Center= -1.7D-07, -1.7D-07,  1.6D-01, r^2= 6.4D+00
   Bfn.  Coefficient  Atom+Function         Bfn.  Coefficient  Atom+Function  
  ----- ------------  ---------------      ----- ------------  ---------------
    29     26.487360  2 F  s                  4    -13.001874  1 Be s          
    28     -6.555834  2 F  s                 59     -4.878568  2 F  dzz        
    14     -4.710035  1 Be pz                54     -4.687477  2 F  dxx        
    57     -4.687477  2 F  dyy               41     -3.186205  2 F  pz         
     3      2.971195  1 Be s                 27      0.928199  2 F  s          

 Vector   33  Occ=0.000000D+00  E= 9.116864D-01
              MO Center= -4.2D-09, -4.2D-09, -9.1D-01, r^2= 3.0D+00
   Bfn.  Coefficient  Atom+Function         Bfn.  Coefficient  Atom+Function  
  ----- ------------  ---------------      ----- ------------  ---------------
    28      3.139398  2 F  s                 23     -2.222158  1 Be dzz        
     8      1.798260  1 Be pz                14     -1.553409  1 Be pz         
    29     -1.086484  2 F  s                 54      1.068160  2 F  dxx        
    57      1.068160  2 F  dyy                4     -1.057693  1 Be s          
    35     -0.688679  2 F  pz                 3     -0.651470  1 Be s          

 Vector   34  Occ=0.000000D+00  E= 1.015608D+00
              MO Center= -1.5D-08, -1.5D-08, -2.5D-01, r^2= 3.5D+00
   Bfn.  Coefficient  Atom+Function         Bfn.  Coefficient  Atom+Function  
  ----- ------------  ---------------      ----- ------------  ---------------
    56      2.177426  2 F  dxz               58      2.177425  2 F  dyz        
    36     -2.159841  2 F  px                37     -2.159840  2 F  py         
    20      2.110861  1 Be dxz               22      2.110861  1 Be dyz        
     6     -1.318053  1 Be px                 7     -1.318052  1 Be py         
    12      0.794932  1 Be px                13      0.794932  1 Be py         

 Vector   35  Occ=0.000000D+00  E= 1.015608D+00
              MO Center= -4.2D-11, -4.2D-11, -2.5D-01, r^2= 3.5D+00
   Bfn.  Coefficient  Atom+Function         Bfn.  Coefficient  Atom+Function  
  ----- ------------  ---------------      ----- ------------  ---------------
    56      2.177425  2 F  dxz               58     -2.177426  2 F  dyz        
    36     -2.159840  2 F  px                37      2.159841  2 F  py         
    20      2.110861  1 Be dxz               22     -2.110861  1 Be dyz        
     6     -1.318052  1 Be px                 7      1.318053  1 Be py         
[...]
     2   1 0 1     -0.000000     -0.000000     -0.000000      0.000000
     2   0 2 0     -7.480632     -5.006787     -2.473845      0.000000
     2   0 1 1     -0.000000     -0.000000     -0.000000      0.000000
     2   0 0 2     -9.421022    -19.271973     -8.442405     18.293356

  int_init: cando_txs set to always be  F
                                NWChem TDDFT Module
                                -------------------


            General Information
            -------------------
           No. of orbitals :     138
            Alpha orbitals :      69
             Beta orbitals :      69
        Alpha frozen cores :       0
         Beta frozen cores :       0
     Alpha frozen virtuals :       0
      Beta frozen virtuals :       0
         Spin multiplicity :       2
    Number of AO functions :      69
        Use of symmetry is : off
      Symmetry adaption is : off
         Schwarz screening :  0.10D-07

              XC Information
              --------------
              Hartree-Fock (Exact) Exchange   1.00          
              LC-wPBE(h)Exchange Functional   1.00          
     Perdew 1991 LDA Correlation Functional   1.00 local    
    PerdewBurkeErnz. Correlation Functional   1.00 non-local
           Alpha           :  0.00
           Beta            :  1.00
           Gamma           :  0.29

             TDDFT Information
             -----------------
          Calculation type : Tamm-Dancoff TDDFT
         Wavefunction type : Unrestricted
          No. of electrons :      13
           Alpha electrons :       7
            Beta electrons :       6
              No. of roots :      10
          Max subspacesize :    6000
            Max iterations :     100
               Target root :       1
           Target symmetry : none
      Symmetry restriction : off
                 Algorithm : Optimal
        Davidson threshold :  0.10D-03

            Memory Information
            ------------------
          Available GA space size is       47185910478 doubles
          Available MA space size is         419534836 doubles
          Length of a trial vector is          434     378
          Algorithm : Incore multiple tensor contraction
          Estimated peak GA usage is          16176206 doubles
          Estimated peak MA usage is             51000 doubles

   10 smallest eigenvalue differences (eV) 
--------------------------------------------------------
  No. Spin  Occ  Vir  Irrep   E(Occ)    E(Vir)   E(Diff)
--------------------------------------------------------
    1    1    7    8 a        -0.318     0.028     9.424
    2    1    7    9 a        -0.318     0.028     9.424
    3    1    7   10 a        -0.318     0.055    10.150
    4    1    7   11 a        -0.318     0.067    10.473
    5    1    7   12 a        -0.318     0.098    11.333
    6    1    7   13 a        -0.318     0.098    11.333
    7    1    7   14 a        -0.318     0.167    13.193
    8    2    6    7 a        -0.515    -0.022    13.413
    9    2    5    7 a        -0.515    -0.022    13.413
   10    1    7   15 a        -0.318     0.177    13.475
--------------------------------------------------------

  Entering Davidson iterations
  Unrestricted

  Iter   NTrls   NConv    DeltaV     DeltaE      Time   
  ----  ------  ------  ---------  ---------  --------- 
    1     10       0     0.53E-01   0.10+100        9.0
    2     20       0     0.29E-01   0.10E-01        9.4
    3     30       0     0.16E-01   0.76E-03        9.4
    4     40       0     0.18E-01   0.53E-03        9.5
    5     50       2     0.90E-01   0.18E-01        9.5
    6     58       5     0.54E-01   0.11E-01        7.9
    7     63       8     0.11E-01   0.16E-02        5.3
    8     65       8     0.26E-02   0.52E-04        2.9
    9     67       9     0.58E-03   0.28E-05        2.9
   10     68       9     0.17E-03   0.15E-06        2.0
   11     69      10     0.51E-04   0.11E-07        2.0
  ----  ------  ------  ---------  ---------  --------- 
  Convergence criterion met

  Ground state a        -114.553945787757 a.u.
  <S2> =   0.7512

  ----------------------------------------------------------------------------
  Root   1         a              0.153555454 a.u.                4.1785 eV 
  <S2> =   0.7508
  ----------------------------------------------------------------------------
     Transition Moments    X  0.96001   Y -0.96001   Z  0.00000
     Transition Moments   XX -0.00000  XY  0.00000  XZ -2.80990
     Transition Moments   YY  0.00000  YZ  2.80991  ZZ -0.00000
     Dipole Oscillator Strength                    0.1886936857
     Electric Quadrupole                           0.0000003045
     Magnetic Dipole                               0.0000010359
     Total Oscillator Strength                     0.1886950260

     Occ.    7 alpha a   ---  Virt.    8 alpha a       -0.91183
     Occ.    7 alpha a   ---  Virt.   13 alpha a       -0.39816
     Occ.    7 alpha a   ---  Virt.   20 alpha a        0.05063
     Occ.    6 beta  a   ---  Virt.    7 beta  a        0.05977
  ----------------------------------------------------------------------------
  Root   2         a              0.153555454 a.u.                4.1785 eV 
  <S2> =   0.7508
  ----------------------------------------------------------------------------
     Transition Moments    X -0.96001   Y -0.96001   Z  0.00000
     Transition Moments   XX -0.00000  XY  0.00000  XZ  2.80991
     Transition Moments   YY -0.00000  YZ  2.80990  ZZ -0.00000
     Dipole Oscillator Strength                    0.1886936843
     Electric Quadrupole                           0.0000003045
     Magnetic Dipole                               0.0000010359
     Total Oscillator Strength                     0.1886950246

     Occ.    7 alpha a   ---  Virt.    9 alpha a        0.91183
     Occ.    7 alpha a   ---  Virt.   12 alpha a        0.39816
     Occ.    7 alpha a   ---  Virt.   19 alpha a       -0.05063
     Occ.    5 beta  a   ---  Virt.    7 beta  a       -0.05977
  ----------------------------------------------------------------------------
  Root   3         a              0.224885722 a.u.                6.1195 eV 
  <S2> =   0.7543
  ----------------------------------------------------------------------------
     Transition Moments    X  0.00000   Y  0.00000   Z  1.05985
     Transition Moments   XX  0.17035  XY  0.00000  XZ -0.00000
     Transition Moments   YY  0.17035  YZ -0.00000  ZZ -6.52968
     Dipole Oscillator Strength                    0.1684081607
     Electric Quadrupole                           0.0000009062
     Magnetic Dipole                               0.0000000000
     Total Oscillator Strength                     0.1684090670

     Occ.    7 alpha a   ---  Virt.   10 alpha a        0.92287
     Occ.    7 alpha a   ---  Virt.   11 alpha a       -0.14026
     Occ.    7 alpha a   ---  Virt.   15 alpha a       -0.35004
  ----------------------------------------------------------------------------
  Root   4         a              0.237438611 a.u.                6.4610 eV 
  <S2> =   0.7531
  ----------------------------------------------------------------------------
     Transition Moments    X  0.00000   Y  0.00000   Z  0.04214
     Transition Moments   XX -2.48461  XY -0.00000  XZ -0.00000
     Transition Moments   YY -2.48461  YZ -0.00000  ZZ -1.55760
     Dipole Oscillator Strength                    0.0002811160
     Electric Quadrupole                           0.0000000204
     Magnetic Dipole                               0.0000000000
     Total Oscillator Strength                     0.0002811364

     Occ.    7 alpha a   ---  Virt.   10 alpha a       -0.12107
     Occ.    7 alpha a   ---  Virt.   11 alpha a       -0.97883
     Occ.    7 alpha a   ---  Virt.   14 alpha a       -0.07472
     Occ.    7 alpha a   ---  Virt.   15 alpha a        0.07181
     Occ.    7 alpha a   ---  Virt.   18 alpha a        0.09372
     Occ.    7 alpha a   ---  Virt.   21 alpha a        0.05664
  ----------------------------------------------------------------------------
  Root   5         a              0.261633331 a.u.                7.1194 eV 
  <S2> =   0.7532
  ----------------------------------------------------------------------------
     Transition Moments    X -0.14018   Y -0.14018   Z  0.00000
     Transition Moments   XX  0.00000  XY -0.00000  XZ  0.40939
     Transition Moments   YY  0.00000  YZ  0.40939  ZZ -0.00000
     Dipole Oscillator Strength                    0.0068552769
     Electric Quadrupole                           0.0000000320
     Magnetic Dipole                               0.0000000250
     Total Oscillator Strength                     0.0068553339

     Occ.    7 alpha a   ---  Virt.    9 alpha a        0.40808
     Occ.    7 alpha a   ---  Virt.   12 alpha a       -0.88240
     Occ.    7 alpha a   ---  Virt.   16 alpha a       -0.06327
     Occ.    7 alpha a   ---  Virt.   19 alpha a        0.16896
     Occ.    5 beta  a   ---  Virt.    7 beta  a        0.14031
  ----------------------------------------------------------------------------
  Root   6         a              0.261633332 a.u.                7.1194 eV 
  <S2> =   0.7532
  ----------------------------------------------------------------------------
     Transition Moments    X  0.14018   Y -0.14018   Z -0.00000
     Transition Moments   XX -0.00000  XY  0.00000  XZ -0.40939
     Transition Moments   YY  0.00000  YZ  0.40939  ZZ  0.00000
     Dipole Oscillator Strength                    0.0068552793
     Electric Quadrupole                           0.0000000320
     Magnetic Dipole                               0.0000000250
     Total Oscillator Strength                     0.0068553362

     Occ.    7 alpha a   ---  Virt.    8 alpha a       -0.40808
     Occ.    7 alpha a   ---  Virt.   13 alpha a        0.88240
     Occ.    7 alpha a   ---  Virt.   17 alpha a        0.06327
     Occ.    7 alpha a   ---  Virt.   20 alpha a       -0.16896
     Occ.    6 beta  a   ---  Virt.    7 beta  a       -0.14031
  ----------------------------------------------------------------------------
  Root   7         a              0.285010981 a.u.                7.7555 eV 
  <S2> =   0.8475
  ----------------------------------------------------------------------------
     Transition Moments    X  0.26487   Y -0.26487   Z -0.00000
     Transition Moments   XX -0.00000  XY  0.00000  XZ -0.33032
     Transition Moments   YY  0.00000  YZ  0.33032  ZZ  0.00000
     Dipole Oscillator Strength                    0.0266613551
     Electric Quadrupole                           0.0000000269
     Magnetic Dipole                               0.0000000009
     Total Oscillator Strength                     0.0266613829

     Occ.    7 alpha a   ---  Virt.   13 alpha a       -0.15937
     Occ.    6 beta  a   ---  Virt.    7 beta  a       -0.95864
     Occ.    6 beta  a   ---  Virt.   10 beta  a        0.09671
     Occ.    6 beta  a   ---  Virt.   11 beta  a       -0.17754
     Occ.    6 beta  a   ---  Virt.   17 beta  a       -0.08959
  ----------------------------------------------------------------------------
  Root   8         a              0.285010996 a.u.                7.7555 eV 
  <S2> =   0.8475
  ----------------------------------------------------------------------------
     Transition Moments    X -0.26488   Y -0.26487   Z -0.00000
     Transition Moments   XX -0.00000  XY  0.00000  XZ  0.33032
     Transition Moments   YY -0.00000  YZ  0.33032  ZZ  0.00000
     Dipole Oscillator Strength                    0.0266613613
     Electric Quadrupole                           0.0000000269
     Magnetic Dipole                               0.0000000009
     Total Oscillator Strength                     0.0266613891

     Occ.    7 alpha a   ---  Virt.   12 alpha a        0.15937
     Occ.    5 beta  a   ---  Virt.    7 beta  a        0.95864
     Occ.    5 beta  a   ---  Virt.   10 beta  a       -0.09671
     Occ.    5 beta  a   ---  Virt.   11 beta  a        0.17754
     Occ.    5 beta  a   ---  Virt.   17 beta  a        0.08959
  ----------------------------------------------------------------------------
  Root   9         a              0.319951758 a.u.                8.7063 eV 
  <S2> =   0.9063
  ----------------------------------------------------------------------------
     Transition Moments    X  0.00000   Y  0.00000   Z  0.52636
     Transition Moments   XX  0.25393  XY -0.00000  XZ -0.00000
     Transition Moments   YY  0.25393  YZ -0.00000  ZZ -3.74005
     Dipole Oscillator Strength                    0.0590967954
     Electric Quadrupole                           0.0000009274
     Magnetic Dipole                               0.0000000000
     Total Oscillator Strength                     0.0590977228

     Occ.    5 alpha a   ---  Virt.    9 alpha a       -0.17741
     Occ.    5 alpha a   ---  Virt.   12 alpha a       -0.09577
     Occ.    6 alpha a   ---  Virt.    8 alpha a       -0.17741
     Occ.    6 alpha a   ---  Virt.   13 alpha a       -0.09577
     Occ.    7 alpha a   ---  Virt.   10 alpha a       -0.35130
     Occ.    7 alpha a   ---  Virt.   14 alpha a        0.14360
     Occ.    7 alpha a   ---  Virt.   15 alpha a       -0.84423
     Occ.    7 alpha a   ---  Virt.   18 alpha a        0.08406
     Occ.    7 alpha a   ---  Virt.   24 alpha a        0.10220
     Occ.    4 beta  a   ---  Virt.    7 beta  a       -0.15943
  ----------------------------------------------------------------------------
  Root  10         a              0.327270989 a.u.                8.9055 eV 
  <S2> =   1.0228
  ----------------------------------------------------------------------------
     Transition Moments    X -0.00000   Y -0.00000   Z  0.10360
     Transition Moments   XX  0.05503  XY  0.00000  XZ  0.00000
     Transition Moments   YY  0.05503  YZ  0.00000  ZZ -1.33200
     Dipole Oscillator Strength                    0.0023415475
     Electric Quadrupole                           0.0000001197
     Magnetic Dipole                               0.0000000000
     Total Oscillator Strength                     0.0023416672

     Occ.    5 alpha a   ---  Virt.    9 alpha a        0.20012
     Occ.    5 alpha a   ---  Virt.   12 alpha a        0.10173
     Occ.    6 alpha a   ---  Virt.    8 alpha a        0.20012
     Occ.    6 alpha a   ---  Virt.   13 alpha a        0.10173
     Occ.    7 alpha a   ---  Virt.   10 alpha a       -0.08532
     Occ.    7 alpha a   ---  Virt.   15 alpha a       -0.25229
     Occ.    4 beta  a   ---  Virt.    7 beta  a        0.87099
     Occ.    4 beta  a   ---  Virt.   10 beta  a       -0.08769
     Occ.    4 beta  a   ---  Virt.   11 beta  a        0.16708
     Occ.    4 beta  a   ---  Virt.   17 beta  a        0.08429
     Occ.    5 beta  a   ---  Virt.    8 beta  a       -0.06076
     Occ.    5 beta  a   ---  Virt.   12 beta  a       -0.05647
     Occ.    6 beta  a   ---  Virt.    9 beta  a       -0.06076
     Occ.    6 beta  a   ---  Virt.   13 beta  a       -0.05647

              Target root =      1
          Target symmetry = none
      Ground state energy =   -114.553945787757
        Excitation energy =      0.153555454072
     Excited state energy =   -114.400390333686

  stored tddft:energy   -114.40039033368552     

 Task  times  cpu:       62.0s     wall:       75.3s


                                NWChem Input Module
                                -------------------


 Summary of allocated global arrays
-----------------------------------
  No active global arrays


MA_summarize_allocated_blocks: starting scan ...
heap block 'gridpts', handle 85, address 0x141dc4a8:
	type of elements:		double precision
	number of elements:		104751784
	address of client space:	0x141dc500
	index for client space:		14029815
	total number of bytes:		838014368
MA_summarize_allocated_blocks: scan completed: 1 heap block, 0 stack blocks
MA usage statistics:

	allocation statistics:
					      heap	     stack
					      ----	     -----
	current number of blocks	         1	         0
	maximum number of blocks	        18	        53
	current total bytes		 838014368	         0
	maximum total bytes		 838315904	  22514232
	maximum total K-bytes		    838316	     22515
	maximum total M-bytes		       839	        23


                                     CITATION
                                     --------
                Please cite the following reference when publishing
                           results obtained with NWChem:

          E. Apra, E. J. Bylaska, W. A. de Jong, N. Govind, K. Kowalski,
       T. P. Straatsma, M. Valiev, H. J. J. van Dam, Y. Alexeev, J. Anchell,
       V. Anisimov, F. W. Aquino, R. Atta-Fynn, J. Autschbach, N. P. Bauman,
     J. C. Becca, D. E. Bernholdt, K. Bhaskaran-Nair, S. Bogatko, P. Borowski,
         J. Boschen, J. Brabec, A. Bruner, E. Cauet, Y. Chen, G. N. Chuev,
      C. J. Cramer, J. Daily, M. J. O. Deegan, T. H. Dunning Jr., M. Dupuis,
   K. G. Dyall, G. I. Fann, S. A. Fischer, A. Fonari, H. Fruchtl, L. Gagliardi,
      J. Garza, N. Gawande, S. Ghosh, K. Glaesemann, A. W. Gotz, J. Hammond,
       V. Helms, E. D. Hermes, K. Hirao, S. Hirata, M. Jacquelin, L. Jensen,
   B. G. Johnson, H. Jonsson, R. A. Kendall, M. Klemm, R. Kobayashi, V. Konkov,
      S. Krishnamoorthy, M. Krishnan, Z. Lin, R. D. Lins, R. J. Littlefield,
      A. J. Logsdail, K. Lopata, W. Ma, A. V. Marenich, J. Martin del Campo,
   D. Mejia-Rodriguez, J. E. Moore, J. M. Mullin, T. Nakajima, D. R. Nascimento,
    J. A. Nichols, P. J. Nichols, J. Nieplocha, A. Otero-de-la-Roza, B. Palmer,
    A. Panyala, T. Pirojsirikul, B. Peng, R. Peverati, J. Pittner, L. Pollack,
   R. M. Richard, P. Sadayappan, G. C. Schatz, W. A. Shelton, D. W. Silverstein,
   D. M. A. Smith, T. A. Soares, D. Song, M. Swart, H. L. Taylor, G. S. Thomas,
            V. Tipparaju, D. G. Truhlar, K. Tsemekhman, T. Van Voorhis,
      A. Vazquez-Mayagoitia, P. Verma, O. Villa, A. Vishnu, K. D. Vogiatzis,
        D. Wang, J. H. Weare, M. J. Williamson, T. L. Windus, K. Wolinski,
        A. T. Wong, Q. Wu, C. Yang, Q. Yu, M. Zacharias, Z. Zhang, Y. Zhao,
                                and R. J. Harrison
                        "NWChem: Past, present, and future
                         J. Chem. Phys. 152, 184102 (2020)
                               doi:10.1063/5.0004997

                                      AUTHORS
                                      -------
  E. Apra, E. J. Bylaska, N. Govind, K. Kowalski, M. Valiev, D. Mejia-Rodriguez,
       A. Kunitsa, N. P. Bauman, A. Panyala, W. A. de Jong, T. P. Straatsma,
   H. J. J. van Dam, D. Wang, T. L. Windus, J. Hammond, J. Autschbach, A. Woods,
    K. Bhaskaran-Nair, J. Brabec, K. Lopata, S. A. Fischer, S. Krishnamoorthy,
     M. Jacquelin, W. Ma, M. Klemm, O. Villa, Y. Chen, V. Anisimov, F. Aquino,
     S. Hirata, M. T. Hackler, E. Hermes, L. Jensen, J. E. Moore, J. C. Becca,
      V. Konjkov, T. Risthaus, M. Malagoli, A. Marenich, A. Otero-de-la-Roza,
        J. Mullin, P. Nichols, R. Peverati, J. Pittner, Y. Zhao, P.-D. Fan,
        A. Fonari, M. J. Williamson, R. J. Harrison, J. R. Rehr, M. Dupuis,
     D. Silverstein, D. M. A. Smith, J. Nieplocha, V. Tipparaju, M. Krishnan,
     B. E. Van Kuiken, A. Vazquez-Mayagoitia, M. Swart, Q. Wu, T. Van Voorhis,
     A. A. Auer, M. Nooijen, L. D. Crosby, E. Brown, G. Cisneros, G. I. Fann,
   H. Fruchtl, J. Garza, K. Hirao, R. A. Kendall, J. A. Nichols, K. Tsemekhman,
    K. Wolinski, J. Anchell, D. E. Bernholdt, P. Borowski, T. Clark, D. Clerc,
   H. Dachsel, M. J. O. Deegan, K. Dyall, D. Elwood, E. Glendening, M. Gutowski,
   A. C. Hess, J. Jaffe, B. G. Johnson, J. Ju, R. Kobayashi, R. Kutteh, Z. Lin,
   R. Littlefield, X. Long, B. Meng, T. Nakajima, S. Niu, L. Pollack, M. Rosing,
   K. Glaesemann, G. Sandrone, M. Stave, H. Taylor, G. Thomas, J. H. van Lenthe,
                               A. T. Wong, Z. Zhang.

 Total times  cpu:       62.1s     wall:       75.7s
