 argument  1 = /home/aditisingh4812/nw_chem/nwchem-run/nwchem-run/tddft/open/gdd_open/geom-MOL/bh2.nw
                                         
                                         


             Northwest Computational Chemistry Package (NWChem) 7.2.3
             --------------------------------------------------------


                    Environmental Molecular Sciences Laboratory
                       Pacific Northwest National Laboratory
                                Richland, WA 99352

                              Copyright (c) 1994-2022
                       Pacific Northwest National Laboratory
                            Battelle Memorial Institute

             NWChem is an open-source computational chemistry package
                        distributed under the terms of the
                      Educational Community License (ECL) 2.0
             A copy of the license is included with this distribution
                              in the LICENSE.TXT file

                                  ACKNOWLEDGMENT
                                  --------------

            This software and its documentation were developed at the
            EMSL at Pacific Northwest National Laboratory, a multiprogram
            national laboratory, operated for the U.S. Department of Energy
            by Battelle under Contract Number DE-AC05-76RL01830. Support
            for this work was provided by the Department of Energy Office
            of Biological and Environmental Research, Office of Basic
            Energy Sciences, and the Office of Advanced Scientific Computing.


           Job information
           ---------------

    hostname        = p17
    program         = /home/aditisingh4812/nw_chem/nwchem-7.2.3-release.revision-d690e065-srconly.2024-08-27/nwchem-7.2.3/bin/LINUX64/nwchem
    date            = Thu May  8 12:04:07 2025

    compiled        = Mon_Apr_07_18:51:54_2025
    source          = /home/aditisingh4812/nw_chem/nwchem-7.2.3-release.revision-d690e065-srconly.2024-08-27/nwchem-7.2.3
    nwchem branch   = 7.2.3
    nwchem revision = d690e065
    ga revision     = 5.8.0
    use scalapack   = F
    input           = /home/aditisingh4812/nw_chem/nwchem-run/nwchem-run/tddft/open/gdd_open/geom-MOL/bh2.nw
    prefix          = bh2.
    data base       = ./bh2.db
    status          = startup
    nproc           =       72
    time left       =     -1s



           Memory information
           ------------------

    heap     =  262143998 doubles =   2000.0 Mbytes
    stack    =  262143995 doubles =   2000.0 Mbytes
    global   =  655360000 doubles =   5000.0 Mbytes (distinct from heap & stack)
    total    = 1179647993 doubles =   9000.0 Mbytes
    verify   = yes
    hardfail = no 


           Directory information
           ---------------------

  0 permanent = .
  0 scratch   = .




                                NWChem Input Module
                                -------------------



 Scaling coordinates for geometry "geometry" by  1.889725989
 (inverse scale =  0.529177249)



                             Geometry "geometry" -> ""
                             -------------------------

 Output coordinates in angstroms (scale by  1.889725989 to convert to a.u.)

  No.       Tag          Charge          X              Y              Z
 ---- ---------------- ---------- -------------- -------------- --------------
    1 B                    5.0000     0.00000000     0.00000000     0.14640257
    2 H                    1.0000    -1.06427600     0.00000000    -0.36600643
    3 H                    1.0000     1.06427600     0.00000000    -0.36600643

      Atomic Mass 
      ----------- 

      B                 11.009310
      H                  1.007825


 Effective nuclear repulsion energy (a.u.)       4.7285852724

            Nuclear Dipole moment (a.u.) 
            ----------------------------
        X                 Y               Z
 ---------------- ---------------- ----------------
     0.0000000000     0.0000000000     0.0000000000


            XYZ format geometry
            -------------------
     3
 geometry
 B                     0.00000000     0.00000000     0.14640257
 H                    -1.06427600     0.00000000    -0.36600643
 H                     1.06427600     0.00000000    -0.36600643

 ==============================================================================
                                internuclear distances
 ------------------------------------------------------------------------------
       center one      |      center two      | atomic units |  angstroms
 ------------------------------------------------------------------------------
    2 H                |   1 B                |     2.23215  |     1.18121
    3 H                |   1 B                |     2.23215  |     1.18121
 ------------------------------------------------------------------------------
                         number of included internuclear distances:          2
 ==============================================================================



 ==============================================================================
                                 internuclear angles
 ------------------------------------------------------------------------------
        center 1       |       center 2       |       center 3       |  degrees
 ------------------------------------------------------------------------------
    2 H                |   1 B                |   3 H                |   128.58
 ------------------------------------------------------------------------------
                            number of included internuclear angles:          1
 ==============================================================================





 Summary of "ao basis" -> "" (cartesian)
 ------------------------------------------------------------------------------
       Tag                 Description            Shells   Functions and Types
 ---------------- ------------------------------  ------  ---------------------
 *                         def2-TZVPD                 on all atoms 


  pbe96 is a nonlocal functional; adding pw91lda local functional. 

                                 NWChem DFT Module
                                 -----------------


                      Basis "ao basis" -> "ao basis" (cartesian)
                      -----
  B (Boron)
  ---------
            Exponent  Coefficients 
       -------------- ---------------------------------------------------------
  1 S  8.56486607E+03  0.000228
  1 S  1.28415163E+03  0.001768
  1 S  2.92278716E+02  0.009141
  1 S  8.27754692E+01  0.036343
  1 S  2.70179393E+01  0.110635
  1 S  9.81496197E+00  0.233673

  2 S  3.93185591E+00  0.418188
  2 S  1.65955997E+00  0.223255

  3 S  3.57629652E-01  1.000000

  4 S  1.42462775E-01  1.000000

  5 S  6.05605948E-02  1.000000

  6 S  3.13347371E-02  1.000000

  7 P  2.24538758E+01  0.005027
  7 P  5.10450583E+00  0.032802
  7 P  1.49860813E+00  0.131512
  7 P  5.09278313E-01  0.331972

  8 P  1.81470778E-01  1.000000

  9 P  6.46218939E-02  1.000000

 10 D  6.61000000E-01  1.000000

 11 D  1.99000000E-01  1.000000

 12 D  5.95490858E-02  1.000000

 13 F  4.90000000E-01  1.000000

  H (Hydrogen)
  ------------
            Exponent  Coefficients 
       -------------- ---------------------------------------------------------
  1 S  3.40613410E+01  0.006025
  1 S  5.12357460E+00  0.045021
  1 S  1.16466260E+00  0.201897

  2 S  3.27230410E-01  1.000000

  3 S  1.03072410E-01  1.000000

  4 P  8.00000000E-01  1.000000

  5 P  9.57741296E-02  1.000000



 Summary of "ao basis" -> "ao basis" (cartesian)
 ------------------------------------------------------------------------------
       Tag                 Description            Shells   Functions and Types
 ---------------- ------------------------------  ------  ---------------------
 B                         def2-TZVPD               13       43   6s3p3d1f
 H                         def2-TZVPD                5        9   3s2p




 Summary of "ao basis" -> "ao basis" (cartesian)
 ------------------------------------------------------------------------------
       Tag                 Description            Shells   Functions and Types
 ---------------- ------------------------------  ------  ---------------------
 B                         def2-TZVPD               13       43   6s3p3d1f
 H                         def2-TZVPD                5        9   3s2p


  int_init: cando_txs set to always be  F
  Caching 1-el integrals 

            General Information
            -------------------
          SCF calculation type: DFT
          Wavefunction type:  spin polarized.
          No. of atoms     :     3
          No. of electrons :     7
           Alpha electrons :     4
            Beta electrons :     3
          Charge           :     0
          Spin multiplicity:     2
          Use of symmetry is: off; symmetry adaption is: off
          Maximum number of iterations:  50
          AO basis - number of functions:    61
                     number of shells:    23
          Convergence on energy requested:  1.00D-06
          Convergence on density requested:  1.00D-05
          Convergence on gradient requested:  5.00D-04

              XC Information
              --------------
                     Hartree-Fock (Exact) Exchange  1.000          
                     LC-wPBE(h)Exchange Functional  1.000          
            Perdew 1991 LDA Correlation Functional  1.000 local    
           PerdewBurkeErnz. Correlation Functional  1.000 non-local

           Range-Separation Parameters        
           ---------------------------
           Alpha           :  0.00
           Beta            :  1.00
           Gamma           :  0.36
           Short-Range HF  :     F

             Grid Information
             ----------------
          Grid used for XC integration:  xfine     
          Radial quadrature: Mura-Knowles        
          Angular quadrature: Lebedev. 
          Tag              B.-S. Rad. Rad. Pts. Rad. Cut. Ang. Pts.
          ---              ---------- --------- --------- ---------
          B                   0.85      100          10.0      1454
          H                   0.35      100          10.0      1202
          Grid pruning is: on 
          Number of quadrature shells:   300
          Spatial weights used:  Erf1

          Convergence Information
          -----------------------
          Convergence aids based upon iterative change in 
          total energy or number of iterations. 
          Levelshifting, if invoked, occurs when the 
          HOMO/LUMO gap drops below (HL_TOL):  1.00D-02
          DIIS, if invoked, will attempt to extrapolate 
          using up to (NFOCK): 10 stored Fock matrices.

                    Damping( 0%)  Levelshifting(0.5)       DIIS
                  --------------- ------------------- ---------------
          dE  on:    start            ASAP                start   
          dE off:    2 iters         50 iters            50 iters 


      Screening Tolerance Information
      -------------------------------
          Density screening/tol_rho:  1.00D-10
          AO Gaussian exp screening on grid/accAOfunc:  14
          CD Gaussian exp screening on grid/accCDfunc:  20
          XC Gaussian exp screening on grid/accXCfunc:  20
          Schwarz screening/accCoul:  1.00D-08

  
  CAM type calculations without CDFIT are
  only available with the direct option.
  Forcing Direct SCF
  

      Superposition of Atomic Density Guess
      -------------------------------------

 Sum of atomic energies:         -25.53433207

      Non-variational initial energy
      ------------------------------

 Total energy =     -25.616614
 1-e energy   =     -42.442001
 2-e energy   =      12.096801
 HOMO         =      -0.092896
 LUMO         =      -0.036863

  WARNING: movecs_in_org=atomic not equal to movecs_in=./bh2.movecs
   Time after variat. SCF:      0.5
   Time prior to 1st pass:      0.6

 Grid_pts file          = ./bh2.gridpts.00
 Record size in doubles =  12289        No. of grid_pts per rec  =   3070
 Max. records in memory =      4        Max. recs in file   =  14072920


           Memory utilization after 1st SCF pass: 
           Heap Space remaining (MW):      157.34           157341526
          Stack Space remaining (MW):      262.14           262143348

   convergence    iter        energy       DeltaE   RMS-Dens  Diis-err    time
 ---------------- ----- ----------------- --------- --------- ---------  ------
 d= 0,ls=0.0,diis     1    -25.8815625337 -3.06D+01  5.69D-03  4.48D-02     0.9
                                                     2.20D-03  3.72D-02
 d= 0,ls=0.0,diis     2    -25.9066075630 -2.50D-02  1.89D-03  1.81D-03     1.2
                                                     1.14D-03  2.47D-03
 d= 0,ls=0.0,diis     3    -25.9090130837 -2.41D-03  6.48D-04  2.84D-04     1.5
                                                     1.92D-04  2.07D-04
 d= 0,ls=0.0,diis     4    -25.9094373593 -4.24D-04  3.00D-04  2.49D-05     1.8
                                                     1.36D-04  4.43D-05
 d= 0,ls=0.0,diis     5    -25.9095211525 -8.38D-05  4.59D-05  2.32D-06     2.1
                                                     4.33D-05  2.77D-06
  Resetting Diis
 d= 0,ls=0.0,diis     6    -25.9095270005 -5.85D-06  1.83D-05  1.98D-07     2.5
                                                     1.07D-05  1.45D-07
 d= 0,ls=0.0,diis     7    -25.9095273427 -3.42D-07  3.44D-06  6.93D-09     2.8
                                                     1.15D-06  5.32D-09


         Total DFT energy =      -25.909527342687
      One electron energy =      -43.026306472208
           Coulomb energy =       17.086333519447
    Exchange-Corr. energy =       -4.698139662282
 Nuclear repulsion energy =        4.728585272356

 Numeric. integr. density =        7.000000012401

     Total iterative time =      2.3s



                    DFT Final Alpha Molecular Orbital Analysis
                    ------------------------------------------

 Vector    1  Occ=1.000000D+00  E=-6.759285D+00
              MO Center=  3.1D-13,  2.3D-12,  1.5D-01, r^2= 4.1D-02
   Bfn.  Coefficient  Atom+Function         Bfn.  Coefficient  Atom+Function  
  ----- ------------  ---------------      ----- ------------  ---------------
     2      0.569695  1 B  s                  1      0.496492  1 B  s          
     3      0.108585  1 B  s                  4     -0.103824  1 B  s          

 Vector    2  Occ=1.000000D+00  E=-6.384475D-01
              MO Center= -1.1D-11,  1.0D-10, -1.4D-01, r^2= 1.3D+00
   Bfn.  Coefficient  Atom+Function         Bfn.  Coefficient  Atom+Function  
  ----- ------------  ---------------      ----- ------------  ---------------
     3      0.342517  1 B  s                  4      0.316971  1 B  s          
     2     -0.187103  1 B  s                 45      0.142799  2 H  s          
    54      0.142799  3 H  s                 44      0.112833  2 H  s          
    53      0.112833  3 H  s                  1     -0.100113  1 B  s          
     9     -0.063713  1 B  pz                46      0.049905  2 H  s          

 Vector    3  Occ=1.000000D+00  E=-4.913537D-01
              MO Center=  2.9D-11,  1.5D-10, -1.5D-01, r^2= 1.5D+00
   Bfn.  Coefficient  Atom+Function         Bfn.  Coefficient  Atom+Function  
  ----- ------------  ---------------      ----- ------------  ---------------
     7      0.333120  1 B  px                10      0.218215  1 B  px         
    45     -0.205339  2 H  s                 54      0.205339  3 H  s          
    44     -0.147433  2 H  s                 53      0.147433  3 H  s          
    46     -0.124836  2 H  s                 55      0.124836  3 H  s          
    13      0.046752  1 B  px                18     -0.035305  1 B  dxz        

 Vector    4  Occ=1.000000D+00  E=-3.257779D-01
              MO Center= -2.3D-11, -2.4D-09,  4.8D-01, r^2= 1.6D+00
   Bfn.  Coefficient  Atom+Function         Bfn.  Coefficient  Atom+Function  
  ----- ------------  ---------------      ----- ------------  ---------------
     9      0.405739  1 B  pz                12      0.374703  1 B  pz         
     4      0.276167  1 B  s                  5      0.187178  1 B  s          
    15      0.175553  1 B  pz                 3      0.128924  1 B  s          
    46     -0.101165  2 H  s                 55     -0.101165  3 H  s          
    45     -0.091103  2 H  s                 54     -0.091103  3 H  s          

 Vector    5  Occ=0.000000D+00  E=-2.336543D-03
              MO Center= -8.7D-15,  3.9D-09,  1.3D-01, r^2= 2.7D+00
   Bfn.  Coefficient  Atom+Function         Bfn.  Coefficient  Atom+Function  
  ----- ------------  ---------------      ----- ------------  ---------------
    14      0.536088  1 B  py                 8      0.367415  1 B  py         
    11      0.259480  1 B  py                35      0.038612  1 B  fxxy       
    42      0.038587  1 B  fyzz       

 Vector    6  Occ=0.000000D+00  E= 3.870087D-02
              MO Center=  3.2D-12, -4.9D-10, -1.8D-03, r^2= 1.8D+01
   Bfn.  Coefficient  Atom+Function         Bfn.  Coefficient  Atom+Function  
  ----- ------------  ---------------      ----- ------------  ---------------
     6      6.191532  1 B  s                 28     -1.663855  1 B  dxx        
    31     -1.631325  1 B  dyy               33     -1.630676  1 B  dzz        
     3     -0.767466  1 B  s                 25     -0.520838  1 B  dyy        
    27     -0.503098  1 B  dzz                5     -0.495460  1 B  s          
    22     -0.489752  1 B  dxx               46     -0.300355  2 H  s          

 Vector    7  Occ=0.000000D+00  E= 1.346186D-01
              MO Center= -8.3D-10,  2.6D-09, -6.8D-01, r^2= 9.4D+00
   Bfn.  Coefficient  Atom+Function         Bfn.  Coefficient  Atom+Function  
  ----- ------------  ---------------      ----- ------------  ---------------
    46      3.314925  2 H  s                 55     -3.314925  3 H  s          
    13      2.738696  1 B  px                30     -0.874813  1 B  dxz        
    50      0.791586  2 H  px                59      0.791586  3 H  px         
    10      0.739034  1 B  px                52      0.433640  2 H  pz         
    61     -0.433640  3 H  pz                24     -0.229434  1 B  dxz        

 Vector    8  Occ=0.000000D+00  E= 1.446627D-01
              MO Center=  5.7D-10,  1.3D-09, -3.1D-01, r^2= 9.1D+00
   Bfn.  Coefficient  Atom+Function         Bfn.  Coefficient  Atom+Function  
  ----- ------------  ---------------      ----- ------------  ---------------
     5      1.535695  1 B  s                 28      1.310976  1 B  dxx        
    33     -1.281666  1 B  dzz               15      0.880962  1 B  pz         
    46     -0.785587  2 H  s                 55     -0.785587  3 H  s          
    31     -0.781440  1 B  dyy               52     -0.636796  2 H  pz         
    61     -0.636796  3 H  pz                 4     -0.375976  1 B  s          

 Vector    9  Occ=0.000000D+00  E= 1.515549D-01
              MO Center=  1.0D-10,  2.3D-09, -2.1D-01, r^2= 9.7D+00
   Bfn.  Coefficient  Atom+Function         Bfn.  Coefficient  Atom+Function  
  ----- ------------  ---------------      ----- ------------  ---------------
     5      8.359265  1 B  s                 46     -4.479517  2 H  s          
    55     -4.479517  3 H  s                 15     -2.660128  1 B  pz         
    31     -1.904180  1 B  dyy               50     -1.602559  2 H  px         
    59      1.602559  3 H  px                28     -1.304096  1 B  dxx        
     6      0.893804  1 B  s                 33     -0.855093  1 B  dzz        

 Vector   10  Occ=0.000000D+00  E= 1.596669D-01
              MO Center=  3.8D-10,  1.2D-09,  1.0D+00, r^2= 7.8D+00
   Bfn.  Coefficient  Atom+Function         Bfn.  Coefficient  Atom+Function  
  ----- ------------  ---------------      ----- ------------  ---------------
    30      2.322116  1 B  dxz               52      0.393010  2 H  pz         
    61     -0.393010  3 H  pz                50      0.266979  2 H  px         
    59      0.266979  3 H  px                10      0.250863  1 B  px         
    45      0.195197  2 H  s                 54     -0.195197  3 H  s          
    24     -0.102887  1 B  dxz                7      0.042038  1 B  px         

 Vector   11  Occ=0.000000D+00  E= 1.682105D-01
              MO Center= -7.9D-11,  1.6D-09,  6.0D-02, r^2= 1.5D+01
   Bfn.  Coefficient  Atom+Function         Bfn.  Coefficient  Atom+Function  
  ----- ------------  ---------------      ----- ------------  ---------------
     6      9.098083  1 B  s                 31     -3.796506  1 B  dyy        
    28     -3.706333  1 B  dxx               33     -3.591764  1 B  dzz        
     5      1.757447  1 B  s                  3     -1.468678  1 B  s          
    25     -1.262460  1 B  dyy               27     -1.252707  1 B  dzz        
    22     -1.176214  1 B  dxx               46     -0.682964  2 H  s          

 Vector   12  Occ=0.000000D+00  E= 1.689757D-01
              MO Center= -2.3D-11, -2.9D-09,  4.5D-01, r^2= 9.3D+00
   Bfn.  Coefficient  Atom+Function         Bfn.  Coefficient  Atom+Function  
  ----- ------------  ---------------      ----- ------------  ---------------
    29      2.518931  1 B  dxy               51      0.527329  2 H  py         
    60     -0.527329  3 H  py                17      0.034361  1 B  dxy        
    23      0.034126  1 B  dxy        

 Vector   13  Occ=0.000000D+00  E= 1.776101D-01
              MO Center=  1.1D-11,  1.2D-08, -2.7D-01, r^2= 8.6D+00
   Bfn.  Coefficient  Atom+Function         Bfn.  Coefficient  Atom+Function  
  ----- ------------  ---------------      ----- ------------  ---------------
    32      1.962571  1 B  dyz               14     -0.665098  1 B  py         
    51      0.307645  2 H  py                60      0.307645  3 H  py         
    11      0.123803  1 B  py                26     -0.090945  1 B  dyz        
     8      0.059124  1 B  py                20      0.056939  1 B  dyz        

 Vector   14  Occ=0.000000D+00  E= 1.806315D-01
              MO Center=  1.6D-11, -1.2D-08,  1.0D+00, r^2= 7.8D+00
   Bfn.  Coefficient  Atom+Function         Bfn.  Coefficient  Atom+Function  
  ----- ------------  ---------------      ----- ------------  ---------------
     5      2.226019  1 B  s                 33     -1.575876  1 B  dzz        
    46     -1.183322  2 H  s                 55     -1.183322  3 H  s          
     6      0.964420  1 B  s                 15     -0.550390  1 B  pz         
    28     -0.524584  1 B  dxx                4      0.518350  1 B  s          
    50     -0.322961  2 H  px                59      0.322961  3 H  px         

 Vector   15  Occ=0.000000D+00  E= 2.052423D-01
              MO Center=  2.6D-11, -5.8D-09,  5.2D-01, r^2= 6.6D+00
   Bfn.  Coefficient  Atom+Function         Bfn.  Coefficient  Atom+Function  
  ----- ------------  ---------------      ----- ------------  ---------------
    14      1.956749  1 B  py                11     -1.094658  1 B  py         
    51     -0.470061  2 H  py                60     -0.470061  3 H  py         
     8     -0.249341  1 B  py                40      0.169447  1 B  fyyy       
    35      0.166414  1 B  fxxy              42      0.162523  1 B  fyzz       
    26     -0.084719  1 B  dyz               32      0.051084  1 B  dyz        

 Vector   16  Occ=0.000000D+00  E= 2.899065D-01
              MO Center= -1.1D-10, -3.5D-10,  2.4D-01, r^2= 7.6D+00
   Bfn.  Coefficient  Atom+Function         Bfn.  Coefficient  Atom+Function  
  ----- ------------  ---------------      ----- ------------  ---------------
    28      2.806047  1 B  dxx                5      2.527037  1 B  s          
    46     -1.791512  2 H  s                 55     -1.791512  3 H  s          
    50      1.508921  2 H  px                59     -1.508921  3 H  px         
     6     -1.336593  1 B  s                  4     -0.946010  1 B  s          
    15     -0.530466  1 B  pz                31     -0.415681  1 B  dyy        

 Vector   17  Occ=0.000000D+00  E= 3.176362D-01
              MO Center=  1.3D-10, -2.4D-10, -1.8D-01, r^2= 7.5D+00
   Bfn.  Coefficient  Atom+Function         Bfn.  Coefficient  Atom+Function  
  ----- ------------  ---------------      ----- ------------  ---------------
    30      3.752055  1 B  dxz               13     -3.283135  1 B  px         
    46     -2.063883  2 H  s                 55      2.063883  3 H  s          
    52      1.337835  2 H  pz                61     -1.337835  3 H  pz         
    50      1.304642  2 H  px                59      1.304642  3 H  px         
    10      0.523378  1 B  px                24     -0.345635  1 B  dxz        

 Vector   18  Occ=0.000000D+00  E= 3.485359D-01
              MO Center= -1.3D-09,  1.2D-10, -6.7D-01, r^2= 7.5D+00
   Bfn.  Coefficient  Atom+Function         Bfn.  Coefficient  Atom+Function  
  ----- ------------  ---------------      ----- ------------  ---------------
     5      7.857105  1 B  s                 46     -4.020360  2 H  s          
    55     -4.020360  3 H  s                 33     -2.902435  1 B  dzz        
    52     -2.701082  2 H  pz                61     -2.701082  3 H  pz         
    15      2.196317  1 B  pz                 4      2.067027  1 B  s          
     6      1.814469  1 B  s                 31     -1.578733  1 B  dyy        

 Vector   19  Occ=0.000000D+00  E= 3.514765D-01
              MO Center=  7.5D-10, -8.2D-10, -2.1D-01, r^2= 7.5D+00
   Bfn.  Coefficient  Atom+Function         Bfn.  Coefficient  Atom+Function  
  ----- ------------  ---------------      ----- ------------  ---------------
    13      2.216949  1 B  px                50     -1.710120  2 H  px         
    59     -1.710120  3 H  px                52      1.157821  2 H  pz         
    61     -1.157821  3 H  pz                30      0.742247  1 B  dxz        
    10     -0.688216  1 B  px                24      0.403342  1 B  dxz        
    45     -0.300579  2 H  s                 54      0.300579  3 H  s          

 Vector   20  Occ=0.000000D+00  E= 3.605588D-01
              MO Center= -2.9D-10,  5.9D-11, -1.4D-01, r^2= 7.4D+00
   Bfn.  Coefficient  Atom+Function         Bfn.  Coefficient  Atom+Function  
  ----- ------------  ---------------      ----- ------------  ---------------
    29      3.282158  1 B  dxy               51      2.310909  2 H  py         
    60     -2.310909  3 H  py                23      0.250080  1 B  dxy        
    17     -0.093809  1 B  dxy        

 Vector   21  Occ=0.000000D+00  E= 3.715972D-01
              MO Center=  2.7D-10,  4.4D-10, -4.3D-01, r^2= 6.9D+00
   Bfn.  Coefficient  Atom+Function         Bfn.  Coefficient  Atom+Function  
  ----- ------------  ---------------      ----- ------------  ---------------
    14      2.621259  1 B  py                51     -2.219281  2 H  py         
    60     -2.219281  3 H  py                32     -1.535901  1 B  dyz        
    11      1.142401  1 B  py                40     -0.162962  1 B  fyyy       
    42     -0.155299  1 B  fyzz              35     -0.145028  1 B  fxxy       
    26     -0.090163  1 B  dyz                8      0.083417  1 B  py         

 Vector   22  Occ=0.000000D+00  E= 4.346624D-01
              MO Center=  8.0D-10, -1.8D-11,  6.5D-01, r^2= 9.8D+00
   Bfn.  Coefficient  Atom+Function         Bfn.  Coefficient  Atom+Function  
  ----- ------------  ---------------      ----- ------------  ---------------
     5     15.732762  1 B  s                  6      8.331893  1 B  s          
    28     -5.852141  1 B  dxx               31     -5.758263  1 B  dyy        
    33     -5.065654  1 B  dzz               46     -3.833377  2 H  s          
    55     -3.833377  3 H  s                  3     -3.254138  1 B  s          
    22     -2.256302  1 B  dxx               25     -2.244043  1 B  dyy        

 Vector   23  Occ=0.000000D+00  E= 4.367051D-01
              MO Center=  5.0D-10, -3.7D-10, -8.5D-01, r^2= 6.5D+00
   Bfn.  Coefficient  Atom+Function         Bfn.  Coefficient  Atom+Function  
  ----- ------------  ---------------      ----- ------------  ---------------
     5      7.614612  1 B  s                 46     -6.477997  2 H  s          
    55     -6.477997  3 H  s                 50     -3.298940  2 H  px         
    59      3.298940  3 H  px                15     -2.629203  1 B  pz         
     3      2.526153  1 B  s                 12     -2.461193  1 B  pz         
     6     -2.137283  1 B  s                 22      1.850864  1 B  dxx        

 Vector   24  Occ=0.000000D+00  E= 4.402707D-01
              MO Center= -1.1D-09, -1.1D-10, -2.0D-01, r^2= 6.7D+00
   Bfn.  Coefficient  Atom+Function         Bfn.  Coefficient  Atom+Function  
  ----- ------------  ---------------      ----- ------------  ---------------
    46      5.746277  2 H  s                 55     -5.746277  3 H  s          
    10      3.649779  1 B  px                50      2.355316  2 H  px         
    59      2.355316  3 H  px                52      1.800836  2 H  pz         
    61     -1.800836  3 H  pz                30      1.151617  1 B  dxz        
    13      0.956905  1 B  px                37     -0.434712  1 B  fxyy       

 Vector   25  Occ=0.000000D+00  E= 5.768756D-01
              MO Center= -1.1D-10, -5.3D-11, -1.9D-02, r^2= 4.9D+00
   Bfn.  Coefficient  Atom+Function         Bfn.  Coefficient  Atom+Function  
  ----- ------------  ---------------      ----- ------------  ---------------
    46      3.657398  2 H  s                 55     -3.657398  3 H  s          
    13      2.850114  1 B  px                24     -2.036391  1 B  dxz        
    30     -1.544397  1 B  dxz               52     -0.836859  2 H  pz         
    61      0.836859  3 H  pz                45     -0.301824  2 H  s          
    54      0.301824  3 H  s                 39      0.107972  1 B  fxzz       

 Vector   26  Occ=0.000000D+00  E= 6.069079D-01
              MO Center=  2.8D-11,  1.4D-08,  2.2D-01, r^2= 3.6D+00
   Bfn.  Coefficient  Atom+Function         Bfn.  Coefficient  Atom+Function  
  ----- ------------  ---------------      ----- ------------  ---------------
    26      2.149898  1 B  dyz               14     -0.735696  1 B  py         
    32     -0.693509  1 B  dyz               51      0.550586  2 H  py         
    60      0.550586  3 H  py                11     -0.122674  1 B  py         
     8     -0.041151  1 B  py                35     -0.028329  1 B  fxxy       

 Vector   27  Occ=0.000000D+00  E= 6.088384D-01
              MO Center=  1.3D-11, -1.4D-08,  4.9D-01, r^2= 4.1D+00
   Bfn.  Coefficient  Atom+Function         Bfn.  Coefficient  Atom+Function  
  ----- ------------  ---------------      ----- ------------  ---------------
     5      8.579845  1 B  s                 46     -5.088605  2 H  s          
    55     -5.088605  3 H  s                 15     -1.660971  1 B  pz         
    33     -1.361211  1 B  dzz               27      1.043904  1 B  dzz        
    50     -1.028553  2 H  px                59      1.028553  3 H  px         
    31     -0.802171  1 B  dyy               25     -0.791242  1 B  dyy        

 Vector   28  Occ=0.000000D+00  E= 6.452753D-01
              MO Center=  5.3D-11, -1.5D-10, -3.6D-02, r^2= 3.7D+00
   Bfn.  Coefficient  Atom+Function         Bfn.  Coefficient  Atom+Function  
  ----- ------------  ---------------      ----- ------------  ---------------
    23      2.494094  1 B  dxy               51      1.351905  2 H  py         
    60     -1.351905  3 H  py                29      0.799924  1 B  dxy        
    38     -0.039344  1 B  fxyz              17     -0.029466  1 B  dxy        

 Vector   29  Occ=0.000000D+00  E= 6.729998D-01
              MO Center= -6.6D-11, -1.5D-10, -1.5D-01, r^2= 5.2D+00
   Bfn.  Coefficient  Atom+Function         Bfn.  Coefficient  Atom+Function  
  ----- ------------  ---------------      ----- ------------  ---------------
     5     10.013672  1 B  s                 46     -6.101706  2 H  s          
    55     -6.101706  3 H  s                 52     -1.922908  2 H  pz         
    61     -1.922908  3 H  pz                33     -1.742085  1 B  dzz        
    31     -1.557984  1 B  dyy               22      1.397115  1 B  dxx        
     4     -0.919761  1 B  s                 28      0.917531  1 B  dxx        

 Vector   30  Occ=0.000000D+00  E= 8.123426D-01
              MO Center=  4.7D-11, -7.6D-10,  1.1D-01, r^2= 3.3D+00
   Bfn.  Coefficient  Atom+Function         Bfn.  Coefficient  Atom+Function  
  ----- ------------  ---------------      ----- ------------  ---------------
    11      3.127411  1 B  py                 8     -1.111190  1 B  py         
    35     -0.907500  1 B  fxxy              42     -0.885129  1 B  fyzz       
    40     -0.877095  1 B  fyyy              51     -0.482475  2 H  py         
    60     -0.482475  3 H  py                14     -0.396249  1 B  py         
    32     -0.266707  1 B  dyz               26     -0.185054  1 B  dyz        

 Vector   31  Occ=0.000000D+00  E= 8.556332D-01
              MO Center= -5.4D-11,  6.3D-10,  4.6D-03, r^2= 4.0D+00
   Bfn.  Coefficient  Atom+Function         Bfn.  Coefficient  Atom+Function  
  ----- ------------  ---------------      ----- ------------  ---------------
     4      7.328297  1 B  s                  3     -3.223595  1 B  s          
    25     -3.222081  1 B  dyy               27     -2.890827  1 B  dzz        
    45     -2.484640  2 H  s                 54     -2.484640  3 H  s          
     5      2.100754  1 B  s                  6      1.962626  1 B  s          
    33     -1.832572  1 B  dzz               15      1.747185  1 B  pz         

 Vector   32  Occ=0.000000D+00  E= 8.759973D-01
              MO Center=  4.1D-10,  1.4D-10, -2.0D-01, r^2= 3.5D+00
   Bfn.  Coefficient  Atom+Function         Bfn.  Coefficient  Atom+Function  
  ----- ------------  ---------------      ----- ------------  ---------------
    46      3.478717  2 H  s                 55     -3.478717  3 H  s          
    24      2.700673  1 B  dxz               45     -2.481473  2 H  s          
    54      2.481473  3 H  s                 13      2.089276  1 B  px         
    30     -1.072614  1 B  dxz                7     -0.725042  1 B  px         
    34     -0.590149  1 B  fxxx              39     -0.507135  1 B  fxzz       

 Vector   33  Occ=0.000000D+00  E= 9.832019D-01
              MO Center=  4.4D-10, -1.9D-10,  7.0D-01, r^2= 5.5D+00
   Bfn.  Coefficient  Atom+Function         Bfn.  Coefficient  Atom+Function  
  ----- ------------  ---------------      ----- ------------  ---------------
     5     17.399553  1 B  s                  4      8.568586  1 B  s          
     3     -7.116956  1 B  s                 22     -6.215911  1 B  dxx        
     6      5.995581  1 B  s                 25     -5.987684  1 B  dyy        
    27     -5.841104  1 B  dzz               31     -4.912652  1 B  dyy        
    28     -4.798131  1 B  dxx               33     -4.535509  1 B  dzz        

 Vector   34  Occ=0.000000D+00  E= 1.023389D+00
              MO Center= -3.8D-10, -1.2D-10, -4.2D-01, r^2= 3.9D+00
   Bfn.  Coefficient  Atom+Function         Bfn.  Coefficient  Atom+Function  
  ----- ------------  ---------------      ----- ------------  ---------------
     5     10.434785  1 B  s                 46     -8.756990  2 H  s          
    55     -8.756990  3 H  s                 12     -5.795956  1 B  pz         
    22      4.471731  1 B  dxx                3      3.239889  1 B  s          
    50     -3.193813  2 H  px                59      3.193813  3 H  px         
    27      2.873580  1 B  dzz               25      2.024174  1 B  dyy        

 Vector   35  Occ=0.000000D+00  E= 1.109840D+00
              MO Center=  5.4D-11,  2.6D-11, -2.0D-01, r^2= 3.9D+00
   Bfn.  Coefficient  Atom+Function         Bfn.  Coefficient  Atom+Function  
  ----- ------------  ---------------      ----- ------------  ---------------
    10      8.617041  1 B  px                46      5.745100  2 H  s          
    55     -5.745100  3 H  s                 24     -3.032975  1 B  dxz        
    50      2.367544  2 H  px                59      2.367544  3 H  px         
    45      2.110950  2 H  s                 54     -2.110950  3 H  s          
     7     -1.280882  1 B  px                37     -1.205037  1 B  fxyy       

 Vector   36  Occ=0.000000D+00  E= 1.590029D+00
              MO Center= -4.1D-10,  2.1D-10,  1.4D-02, r^2= 1.9D+00
   Bfn.  Coefficient  Atom+Function         Bfn.  Coefficient  Atom+Function  
  ----- ------------  ---------------      ----- ------------  ---------------
    24      1.324469  1 B  dxz               39      1.174507  1 B  fxzz       
    10     -0.898084  1 B  px                46     -0.661841  2 H  s          
    55      0.661841  3 H  s                 30     -0.624802  1 B  dxz        
    45     -0.584011  2 H  s                 54      0.584011  3 H  s          
    34     -0.544267  1 B  fxxx              52     -0.458921  2 H  pz         

 Vector   37  Occ=0.000000D+00  E= 1.626424D+00
              MO Center= -6.4D-09, -1.1D-10, -1.4D-01, r^2= 1.7D+00
   Bfn.  Coefficient  Atom+Function         Bfn.  Coefficient  Atom+Function  
  ----- ------------  ---------------      ----- ------------  ---------------
    35      1.522951  1 B  fxxy              14      0.685768  1 B  py         
    51     -0.480717  2 H  py                60     -0.480717  3 H  py         
    32     -0.450518  1 B  dyz               26      0.428371  1 B  dyz        
    48      0.415913  2 H  py                57      0.415913  3 H  py         
    20     -0.322477  1 B  dyz               40     -0.316073  1 B  fyyy       

 Vector   38  Occ=0.000000D+00  E= 1.641064D+00
              MO Center=  6.1D-09, -1.1D-10, -1.0D-02, r^2= 1.8D+00
   Bfn.  Coefficient  Atom+Function         Bfn.  Coefficient  Atom+Function  
  ----- ------------  ---------------      ----- ------------  ---------------
    38      2.341658  1 B  fxyz              23      0.894056  1 B  dxy        
    29     -0.686101  1 B  dxy               17     -0.584036  1 B  dxy        
    48      0.406894  2 H  py                57     -0.406894  3 H  py         
    51     -0.309482  2 H  py                60      0.309482  3 H  py         

 Vector   39  Occ=0.000000D+00  E= 1.766409D+00
              MO Center=  2.3D-10, -8.6D-11,  8.8D-02, r^2= 1.5D+00
   Bfn.  Coefficient  Atom+Function         Bfn.  Coefficient  Atom+Function  
  ----- ------------  ---------------      ----- ------------  ---------------
     4      3.302338  1 B  s                 41      1.892068  1 B  fyyz       
     5      1.683167  1 B  s                  3     -1.418284  1 B  s          
    27     -1.132563  1 B  dzz               25     -0.965371  1 B  dyy        
    46     -0.892045  2 H  s                 55     -0.892045  3 H  s          
    43     -0.878973  1 B  fzzz              45     -0.404875  2 H  s          

 Vector   40  Occ=0.000000D+00  E= 1.786302D+00
              MO Center=  3.5D-12,  3.3D-11,  1.5D-01, r^2= 1.3D+00
   Bfn.  Coefficient  Atom+Function         Bfn.  Coefficient  Atom+Function  
  ----- ------------  ---------------      ----- ------------  ---------------
    42      2.468818  1 B  fyzz              40     -0.610094  1 B  fyyy       
    35     -0.530088  1 B  fxxy              11     -0.038780  1 B  py         
    26      0.027701  1 B  dyz        

 Vector   41  Occ=0.000000D+00  E= 1.881776D+00
              MO Center= -7.8D-10,  7.3D-11,  2.1D-01, r^2= 1.7D+00
   Bfn.  Coefficient  Atom+Function         Bfn.  Coefficient  Atom+Function  
  ----- ------------  ---------------      ----- ------------  ---------------
    24      1.830915  1 B  dxz               18     -1.489535  1 B  dxz        
    39     -1.442077  1 B  fxzz              46     -1.195911  2 H  s          
    55      1.195911  3 H  s                 13     -0.946701  1 B  px         
    34     -0.541371  1 B  fxxx              30      0.468312  1 B  dxz        
    52      0.401071  2 H  pz                61     -0.401071  3 H  pz         

 Vector   42  Occ=0.000000D+00  E= 1.885839D+00
              MO Center=  6.9D-10, -3.9D-10, -8.9D-03, r^2= 2.0D+00
   Bfn.  Coefficient  Atom+Function         Bfn.  Coefficient  Atom+Function  
  ----- ------------  ---------------      ----- ------------  ---------------
     4     12.082939  1 B  s                  3     -5.591308  1 B  s          
     5      4.385507  1 B  s                 25     -3.811355  1 B  dyy        
    27     -3.769923  1 B  dzz               46     -2.135139  2 H  s          
    55     -2.135139  3 H  s                 36     -1.921142  1 B  fxxz       
    41     -1.339975  1 B  fyyz              45     -1.229736  2 H  s          

 Vector   43  Occ=0.000000D+00  E= 1.944309D+00
              MO Center=  1.7D-12, -3.1D-11,  1.6D-01, r^2= 1.6D+00
   Bfn.  Coefficient  Atom+Function         Bfn.  Coefficient  Atom+Function  
  ----- ------------  ---------------      ----- ------------  ---------------
     4      7.862722  1 B  s                  3     -4.119031  1 B  s          
    25     -2.993286  1 B  dyy               22     -2.355212  1 B  dxx        
     5      1.651456  1 B  s                 27     -1.398750  1 B  dzz        
    21     -1.009776  1 B  dzz               19      0.840256  1 B  dyy        
    36     -0.709639  1 B  fxxz               6      0.594843  1 B  s          

 Vector   44  Occ=0.000000D+00  E= 1.973101D+00
              MO Center= -7.6D-11,  2.4D-08,  1.8D-01, r^2= 1.4D+00
   Bfn.  Coefficient  Atom+Function         Bfn.  Coefficient  Atom+Function  
  ----- ------------  ---------------      ----- ------------  ---------------
    20      2.077837  1 B  dyz               26     -1.518630  1 B  dyz        
    35      0.816548  1 B  fxxy              14      0.333175  1 B  py         
    32      0.330137  1 B  dyz               51     -0.234126  2 H  py         
    60     -0.234126  3 H  py                42      0.149359  1 B  fyzz       
     8     -0.101753  1 B  py                40     -0.062484  1 B  fyyy       

 Vector   45  Occ=0.000000D+00  E= 1.974470D+00
              MO Center=  1.3D-09, -2.3D-08, -9.9D-02, r^2= 2.9D+00
   Bfn.  Coefficient  Atom+Function         Bfn.  Coefficient  Atom+Function  
  ----- ------------  ---------------      ----- ------------  ---------------
     4     30.888072  1 B  s                  3    -16.397476  1 B  s          
    25     -8.904633  1 B  dyy               27     -8.658045  1 B  dzz        
    22     -7.830614  1 B  dxx               46      3.692827  2 H  s          
    55      3.692827  3 H  s                  5     -3.532155  1 B  s          
    45     -2.602253  2 H  s                 54     -2.602253  3 H  s          

 Vector   46  Occ=0.000000D+00  E= 1.987684D+00
              MO Center=  7.8D-11, -2.2D-09,  2.3D-01, r^2= 1.5D+00
   Bfn.  Coefficient  Atom+Function         Bfn.  Coefficient  Atom+Function  
  ----- ------------  ---------------      ----- ------------  ---------------
    38      2.253107  1 B  fxyz              17      1.862790  1 B  dxy        
    23     -1.852375  1 B  dxy               51     -0.589536  2 H  py         
    60      0.589536  3 H  py                29     -0.291954  1 B  dxy        
    48     -0.175194  2 H  py                57      0.175194  3 H  py         

 Vector   47  Occ=0.000000D+00  E= 1.995245D+00
              MO Center= -1.1D-09,  1.9D-09, -5.4D-03, r^2= 2.1D+00
   Bfn.  Coefficient  Atom+Function         Bfn.  Coefficient  Atom+Function  
  ----- ------------  ---------------      ----- ------------  ---------------
    45      2.827126  2 H  s                 54     -2.827126  3 H  s          
    46     -2.203985  2 H  s                 55      2.203985  3 H  s          
    24     -2.033116  1 B  dxz               34      1.818866  1 B  fxxx       
    37     -1.645319  1 B  fxyy              39      1.464742  1 B  fxzz       
    13     -1.338909  1 B  px                10      0.828627  1 B  px         

 Vector   48  Occ=0.000000D+00  E= 2.077476D+00
              MO Center= -1.5D-12,  9.0D-11,  1.3D-01, r^2= 1.8D+00
   Bfn.  Coefficient  Atom+Function         Bfn.  Coefficient  Atom+Function  
  ----- ------------  ---------------      ----- ------------  ---------------
    11      2.771324  1 B  py                40     -2.179528  1 B  fyyy       
    42     -1.968953  1 B  fyzz              35     -1.417484  1 B  fxxy       
     8      0.735800  1 B  py                14     -0.275463  1 B  py         
    51     -0.273964  2 H  py                60     -0.273964  3 H  py         
    26     -0.174500  1 B  dyz               32     -0.141413  1 B  dyz        

 Vector   49  Occ=0.000000D+00  E= 2.114509D+00
              MO Center= -4.1D-11, -7.6D-11,  3.5D-01, r^2= 2.6D+00
   Bfn.  Coefficient  Atom+Function         Bfn.  Coefficient  Atom+Function  
  ----- ------------  ---------------      ----- ------------  ---------------
     4     33.344632  1 B  s                  3    -19.119295  1 B  s          
    22    -10.915751  1 B  dxx               27    -10.554424  1 B  dzz        
    25    -10.226657  1 B  dyy                5      8.423628  1 B  s          
     6      2.797120  1 B  s                 31     -2.451383  1 B  dyy        
    33     -2.287886  1 B  dzz               46     -2.115812  2 H  s          

 Vector   50  Occ=0.000000D+00  E= 2.234491D+00
              MO Center=  2.1D-09, -5.5D-10, -3.9D-02, r^2= 2.0D+00
   Bfn.  Coefficient  Atom+Function         Bfn.  Coefficient  Atom+Function  
  ----- ------------  ---------------      ----- ------------  ---------------
     4     10.502990  1 B  s                  3     -7.719813  1 B  s          
    22     -5.799566  1 B  dxx               27     -4.086679  1 B  dzz        
    25     -3.677255  1 B  dyy               12      2.743801  1 B  pz         
    46      2.701462  2 H  s                 55      2.701462  3 H  s          
     5     -2.274741  1 B  s                 45      1.838712  2 H  s          

 Vector   51  Occ=0.000000D+00  E= 2.263343D+00
              MO Center= -2.1D-09,  8.1D-11,  3.2D-02, r^2= 2.4D+00
   Bfn.  Coefficient  Atom+Function         Bfn.  Coefficient  Atom+Function  
  ----- ------------  ---------------      ----- ------------  ---------------
    10      7.121965  1 B  px                46      5.240919  2 H  s          
    55     -5.240918  3 H  s                 37     -3.971767  1 B  fxyy       
    39     -2.310146  1 B  fxzz              34     -2.092631  1 B  fxxx       
    24     -1.826442  1 B  dxz               50      1.432166  2 H  px         
    59      1.432166  3 H  px                13      0.971462  1 B  px         

 Vector   52  Occ=0.000000D+00  E= 2.292227D+00
              MO Center= -3.8D-13,  1.0D-10, -1.0D-01, r^2= 2.1D+00
   Bfn.  Coefficient  Atom+Function         Bfn.  Coefficient  Atom+Function  
  ----- ------------  ---------------      ----- ------------  ---------------
     5      9.472321  1 B  s                 46     -5.717255  2 H  s          
    55     -5.717255  3 H  s                 12     -4.792195  1 B  pz         
    43      2.392789  1 B  fzzz              41      2.181614  1 B  fyyz       
    50     -1.985074  2 H  px                59      1.985074  3 H  px         
    36      1.935906  1 B  fxxz              22      1.874680  1 B  dxx        

 Vector   53  Occ=0.000000D+00  E= 2.481764D+00
              MO Center=  8.4D-09,  4.3D-10, -2.4D-01, r^2= 1.6D+00
   Bfn.  Coefficient  Atom+Function         Bfn.  Coefficient  Atom+Function  
  ----- ------------  ---------------      ----- ------------  ---------------
    38      3.176800  1 B  fxyz              17     -1.059286  1 B  dxy        
    48     -0.881603  2 H  py                57      0.881603  3 H  py         
    23     -0.528650  1 B  dxy               29      0.211791  1 B  dxy        
    51      0.117144  2 H  py                60     -0.117144  3 H  py         

 Vector   54  Occ=0.000000D+00  E= 2.505311D+00
              MO Center= -8.2D-09,  4.2D-10, -4.5D-02, r^2= 1.7D+00
   Bfn.  Coefficient  Atom+Function         Bfn.  Coefficient  Atom+Function  
  ----- ------------  ---------------      ----- ------------  ---------------
    35      2.961627  1 B  fxxy              48     -0.912527  2 H  py         
    57     -0.912527  3 H  py                20     -0.493691  1 B  dyz        
    42      0.414889  1 B  fyzz              40     -0.388648  1 B  fyyy       
    26     -0.283682  1 B  dyz                8     -0.134339  1 B  py         
    14     -0.116422  1 B  py                51      0.114384  2 H  py         

 Vector   55  Occ=0.000000D+00  E= 2.752424D+00
              MO Center= -9.2D-10,  6.5D-11, -1.8D-01, r^2= 1.9D+00
   Bfn.  Coefficient  Atom+Function         Bfn.  Coefficient  Atom+Function  
  ----- ------------  ---------------      ----- ------------  ---------------
    39      2.617004  1 B  fxzz              45     -1.688477  2 H  s          
    54      1.688477  3 H  s                 10     -1.532809  1 B  px         
    34     -1.138841  1 B  fxxx              49     -1.027477  2 H  pz         
    58      1.027477  3 H  pz                13      0.862064  1 B  px         
    46      0.600751  2 H  s                 55     -0.600751  3 H  s          

 Vector   56  Occ=0.000000D+00  E= 3.047920D+00
              MO Center= -5.3D-09,  1.5D-10, -2.4D-01, r^2= 2.1D+00
   Bfn.  Coefficient  Atom+Function         Bfn.  Coefficient  Atom+Function  
  ----- ------------  ---------------      ----- ------------  ---------------
     5      5.917785  1 B  s                 46     -3.253838  2 H  s          
    55     -3.253838  3 H  s                 45      2.999674  2 H  s          
    54      2.999674  3 H  s                 16     -1.228619  1 B  dxx        
    47      0.969486  2 H  px                56     -0.969486  3 H  px         
     3     -0.940859  1 B  s                 31     -0.940281  1 B  dyy        

 Vector   57  Occ=0.000000D+00  E= 3.075423D+00
              MO Center=  7.1D-09, -1.0D-10, -2.6D-01, r^2= 2.0D+00
   Bfn.  Coefficient  Atom+Function         Bfn.  Coefficient  Atom+Function  
  ----- ------------  ---------------      ----- ------------  ---------------
    45      3.165545  2 H  s                 54     -3.165545  3 H  s          
    10      3.148290  1 B  px                24     -1.985600  1 B  dxz        
    13     -1.261493  1 B  px                44     -0.977130  2 H  s          
    53      0.977130  3 H  s                 39      0.971628  1 B  fxzz       
    47      0.841385  2 H  px                56      0.841385  3 H  px         

 Vector   58  Occ=0.000000D+00  E= 3.664702D+00
              MO Center= -2.8D-09, -2.0D-10, -6.6D-02, r^2= 1.8D+00
   Bfn.  Coefficient  Atom+Function         Bfn.  Coefficient  Atom+Function  
  ----- ------------  ---------------      ----- ------------  ---------------
    34      3.098770  1 B  fxxx              18     -2.804553  1 B  dxz        
    45      2.746062  2 H  s                 54     -2.746062  3 H  s          
    39      2.091305  1 B  fxzz              46     -1.932659  2 H  s          
    55      1.932659  3 H  s                 47      1.450016  2 H  px         
    56      1.450016  3 H  px                24     -1.243814  1 B  dxz        

 Vector   59  Occ=0.000000D+00  E= 3.821336D+00
              MO Center=  1.9D-09, -4.1D-10, -1.4D-01, r^2= 1.6D+00
   Bfn.  Coefficient  Atom+Function         Bfn.  Coefficient  Atom+Function  
  ----- ------------  ---------------      ----- ------------  ---------------
     4     27.123339  1 B  s                  3    -11.772814  1 B  s          
    25     -7.299445  1 B  dyy               27     -6.940220  1 B  dzz        
    22     -5.354400  1 B  dxx               36     -4.593339  1 B  fxxz       
    45     -2.350070  2 H  s                 54     -2.350070  3 H  s          
    19     -1.419346  1 B  dyy               47     -1.304521  2 H  px         

 Vector   60  Occ=0.000000D+00  E= 4.922142D+00
              MO Center= -2.3D-11, -7.7D-12,  1.6D-01, r^2= 1.2D+00
   Bfn.  Coefficient  Atom+Function         Bfn.  Coefficient  Atom+Function  
  ----- ------------  ---------------      ----- ------------  ---------------
     4     27.201266  1 B  s                  3     -9.003566  1 B  s          
    22     -8.849861  1 B  dxx               27     -8.300612  1 B  dzz        
    25     -8.165162  1 B  dyy               16     -3.685550  1 B  dxx        
    21     -3.216445  1 B  dzz               19     -3.058211  1 B  dyy        
     5      2.075814  1 B  s                  6      1.591060  1 B  s          

 Vector   61  Occ=0.000000D+00  E= 2.123078D+01
              MO Center= -1.6D-13, -6.5D-14,  1.5D-01, r^2= 2.7D-01
   Bfn.  Coefficient  Atom+Function         Bfn.  Coefficient  Atom+Function  
  ----- ------------  ---------------      ----- ------------  ---------------
     4      6.253593  1 B  s                  2     -3.568784  1 B  s          
     3      2.731175  1 B  s                 22     -2.655662  1 B  dxx        
    16     -2.591788  1 B  dxx               21     -2.490951  1 B  dzz        
    27     -2.497539  1 B  dzz               19     -2.457202  1 B  dyy        
    25     -2.456489  1 B  dyy                1      1.626276  1 B  s          


                     DFT Final Beta Molecular Orbital Analysis
                     -----------------------------------------

 Vector    1  Occ=1.000000D+00  E=-6.749071D+00
              MO Center=  4.6D-13,  3.4D-12,  1.5D-01, r^2= 4.1D-02
   Bfn.  Coefficient  Atom+Function         Bfn.  Coefficient  Atom+Function  
  ----- ------------  ---------------      ----- ------------  ---------------
     2      0.570183  1 B  s                  1      0.496864  1 B  s          
     3      0.102471  1 B  s                  4     -0.095666  1 B  s          

 Vector    2  Occ=1.000000D+00  E=-6.076733D-01
              MO Center=  7.1D-12,  3.3D-10, -2.2D-01, r^2= 1.3D+00
   Bfn.  Coefficient  Atom+Function         Bfn.  Coefficient  Atom+Function  
  ----- ------------  ---------------      ----- ------------  ---------------
     3      0.333808  1 B  s                  4      0.261717  1 B  s          
     2     -0.177435  1 B  s                 45      0.154502  2 H  s          
    54      0.154502  3 H  s                 44      0.119912  2 H  s          
    53      0.119912  3 H  s                  9     -0.102173  1 B  pz         
     1     -0.095174  1 B  s                 12     -0.063071  1 B  pz         

 Vector    3  Occ=1.000000D+00  E=-4.826652D-01
              MO Center=  2.8D-11,  1.4D-10, -1.6D-01, r^2= 1.5D+00
   Bfn.  Coefficient  Atom+Function         Bfn.  Coefficient  Atom+Function  
  ----- ------------  ---------------      ----- ------------  ---------------
     7      0.326115  1 B  px                10      0.208281  1 B  px         
    45     -0.208229  2 H  s                 54      0.208229  3 H  s          
    44     -0.149011  2 H  s                 53      0.149011  3 H  s          
    46     -0.129756  2 H  s                 55      0.129756  3 H  s          
    18     -0.047273  1 B  dxz               13      0.045447  1 B  px         

 Vector    4  Occ=0.000000D+00  E= 1.785175D-02
              MO Center=  7.9D-13,  3.0D-08,  5.0D-02, r^2= 3.0D+00
   Bfn.  Coefficient  Atom+Function         Bfn.  Coefficient  Atom+Function  
  ----- ------------  ---------------      ----- ------------  ---------------
    14      0.610638  1 B  py                 8      0.348875  1 B  py         
    11      0.207044  1 B  py                32     -0.064222  1 B  dyz        
    35      0.052880  1 B  fxxy              26     -0.049945  1 B  dyz        
    40      0.030564  1 B  fyyy       

 Vector    5  Occ=0.000000D+00  E= 2.554936D-02
              MO Center=  2.9D-11, -3.2D-08,  8.7D-01, r^2= 5.0D+00
   Bfn.  Coefficient  Atom+Function         Bfn.  Coefficient  Atom+Function  
  ----- ------------  ---------------      ----- ------------  ---------------
     6      1.994073  1 B  s                  5     -1.252488  1 B  s          
    15      0.681442  1 B  pz                46      0.487212  2 H  s          
    55      0.487212  3 H  s                 33     -0.407908  1 B  dzz        
    12      0.290682  1 B  pz                28     -0.289157  1 B  dxx        
    31     -0.265623  1 B  dyy                9      0.255555  1 B  pz         

 Vector    6  Occ=0.000000D+00  E= 4.289057D-02
              MO Center= -1.2D-11,  4.2D-09, -4.4D-01, r^2= 1.5D+01
   Bfn.  Coefficient  Atom+Function         Bfn.  Coefficient  Atom+Function  
  ----- ------------  ---------------      ----- ------------  ---------------
     6      6.060131  1 B  s                 28     -1.777440  1 B  dxx        
    31     -1.752951  1 B  dyy               33     -1.683679  1 B  dzz        
     3     -0.743759  1 B  s                 46     -0.655365  2 H  s          
    55     -0.655365  3 H  s                 15     -0.512221  1 B  pz         
    25     -0.500377  1 B  dyy               22     -0.446190  1 B  dxx        

 Vector    7  Occ=0.000000D+00  E= 1.360989D-01
              MO Center= -4.3D-10,  2.7D-09, -6.6D-01, r^2= 9.5D+00
   Bfn.  Coefficient  Atom+Function         Bfn.  Coefficient  Atom+Function  
  ----- ------------  ---------------      ----- ------------  ---------------
    46      3.357694  2 H  s                 55     -3.357694  3 H  s          
    13      2.761571  1 B  px                30     -0.867004  1 B  dxz        
    50      0.803303  2 H  px                59      0.803303  3 H  px         
    10      0.755586  1 B  px                52      0.430925  2 H  pz         
    61     -0.430925  3 H  pz                24     -0.229196  1 B  dxz        

 Vector    8  Occ=0.000000D+00  E= 1.480448D-01
              MO Center=  2.7D-10, -2.0D-10, -4.2D-02, r^2= 9.5D+00
   Bfn.  Coefficient  Atom+Function         Bfn.  Coefficient  Atom+Function  
  ----- ------------  ---------------      ----- ------------  ---------------
     5      3.195044  1 B  s                 46     -1.675362  2 H  s          
    55     -1.675362  3 H  s                 33     -1.388370  1 B  dzz        
    31     -1.192338  1 B  dyy               28      1.061803  1 B  dxx        
    52     -0.660317  2 H  pz                61     -0.660317  3 H  pz         
     6      0.487575  1 B  s                 15      0.361307  1 B  pz         

 Vector    9  Occ=0.000000D+00  E= 1.686444D-01
              MO Center= -1.4D-09, -2.1D-09, -5.5D-01, r^2= 1.3D+01
   Bfn.  Coefficient  Atom+Function         Bfn.  Coefficient  Atom+Function  
  ----- ------------  ---------------      ----- ------------  ---------------
     6      7.010677  1 B  s                  5     -3.342753  1 B  s          
    33     -2.626444  1 B  dzz               28     -2.117880  1 B  dxx        
    31     -2.101878  1 B  dyy               46      2.020802  2 H  s          
    55      2.020802  3 H  s                  3     -1.537806  1 B  s          
    15      1.520112  1 B  pz                22     -1.243018  1 B  dxx        

 Vector   10  Occ=0.000000D+00  E= 1.697838D-01
              MO Center=  1.6D-09,  7.4D-08,  1.0D+00, r^2= 8.3D+00
   Bfn.  Coefficient  Atom+Function         Bfn.  Coefficient  Atom+Function  
  ----- ------------  ---------------      ----- ------------  ---------------
    30      2.509599  1 B  dxz               52      0.422753  2 H  pz         
    61     -0.422753  3 H  pz                50      0.298264  2 H  px         
    59      0.298264  3 H  px                10      0.227417  1 B  px         
    45      0.208024  2 H  s                 54     -0.208024  3 H  s          
    46     -0.200699  2 H  s                 55      0.200699  3 H  s          

 Vector   11  Occ=0.000000D+00  E= 1.703148D-01
              MO Center=  1.5D-11, -7.5D-08,  4.4D-01, r^2= 9.4D+00
   Bfn.  Coefficient  Atom+Function         Bfn.  Coefficient  Atom+Function  
  ----- ------------  ---------------      ----- ------------  ---------------
    29      2.513497  1 B  dxy               51      0.519177  2 H  py         
    60     -0.519177  3 H  py                17      0.034152  1 B  dxy        

 Vector   12  Occ=0.000000D+00  E= 1.777842D-01
              MO Center=  7.7D-11,  9.9D-09, -2.7D-01, r^2= 1.0D+01
   Bfn.  Coefficient  Atom+Function         Bfn.  Coefficient  Atom+Function  
  ----- ------------  ---------------      ----- ------------  ---------------
     5      5.765036  1 B  s                  6      4.519783  1 B  s          
    31     -3.203424  1 B  dyy               46     -2.895135  2 H  s          
    55     -2.895135  3 H  s                 28     -2.811420  1 B  dxx        
    15     -1.795844  1 B  pz                33     -1.336691  1 B  dzz        
    50     -1.195272  2 H  px                59      1.195272  3 H  px         

 Vector   13  Occ=0.000000D+00  E= 1.850238D-01
              MO Center= -1.4D-11,  4.6D-09, -1.2D-01, r^2= 8.8D+00
   Bfn.  Coefficient  Atom+Function         Bfn.  Coefficient  Atom+Function  
  ----- ------------  ---------------      ----- ------------  ---------------
    32      2.015210  1 B  dyz               14     -0.584226  1 B  py         
    51      0.321405  2 H  py                60      0.321405  3 H  py         
    26     -0.152685  1 B  dyz                8      0.064983  1 B  py         
    11      0.061760  1 B  py                20      0.049580  1 B  dyz        

 Vector   14  Occ=0.000000D+00  E= 1.935234D-01
              MO Center=  8.3D-12, -4.4D-09,  1.5D+00, r^2= 7.2D+00
   Bfn.  Coefficient  Atom+Function         Bfn.  Coefficient  Atom+Function  
  ----- ------------  ---------------      ----- ------------  ---------------
     5      7.123598  1 B  s                  6      4.013080  1 B  s          
    46     -3.586378  2 H  s                 55     -3.586378  3 H  s          
    33     -2.938390  1 B  dzz               28     -2.373720  1 B  dxx        
    31     -2.010452  1 B  dyy               15     -1.725396  1 B  pz         
    50     -1.187090  2 H  px                59      1.187090  3 H  px         

 Vector   15  Occ=0.000000D+00  E= 2.129942D-01
              MO Center=  8.5D-12, -8.8D-09,  4.0D-01, r^2= 6.5D+00
   Bfn.  Coefficient  Atom+Function         Bfn.  Coefficient  Atom+Function  
  ----- ------------  ---------------      ----- ------------  ---------------
    14      2.016596  1 B  py                11     -1.117407  1 B  py         
    51     -0.523595  2 H  py                60     -0.523595  3 H  py         
     8     -0.255533  1 B  py                42      0.186861  1 B  fyzz       
    40      0.172778  1 B  fyyy              35      0.164875  1 B  fxxy       
    32     -0.079553  1 B  dyz               26     -0.059025  1 B  dyz        

 Vector   16  Occ=0.000000D+00  E= 2.951569D-01
              MO Center= -5.7D-11, -2.8D-10,  2.2D-01, r^2= 7.7D+00
   Bfn.  Coefficient  Atom+Function         Bfn.  Coefficient  Atom+Function  
  ----- ------------  ---------------      ----- ------------  ---------------
    28      2.847639  1 B  dxx                5      2.146224  1 B  s          
    50      1.600719  2 H  px                59     -1.600719  3 H  px         
    46     -1.582977  2 H  s                 55     -1.582977  3 H  s          
     6     -1.371882  1 B  s                  4     -1.085629  1 B  s          
    15     -0.594777  1 B  pz                12      0.398426  1 B  pz         

 Vector   17  Occ=0.000000D+00  E= 3.307609D-01
              MO Center=  2.2D-10, -1.2D-09, -3.0D-01, r^2= 7.5D+00
   Bfn.  Coefficient  Atom+Function         Bfn.  Coefficient  Atom+Function  
  ----- ------------  ---------------      ----- ------------  ---------------
    30     -3.625133  1 B  dxz               13      3.597764  1 B  px         
    46      1.876786  2 H  s                 55     -1.876786  3 H  s          
    50     -1.621546  2 H  px                59     -1.621546  3 H  px         
    52     -1.311799  2 H  pz                61      1.311799  3 H  pz         
    10     -0.780926  1 B  px                24      0.269506  1 B  dxz        

 Vector   18  Occ=0.000000D+00  E= 3.545186D-01
              MO Center= -2.5D-09,  8.2D-10, -1.4D-01, r^2= 7.5D+00
   Bfn.  Coefficient  Atom+Function         Bfn.  Coefficient  Atom+Function  
  ----- ------------  ---------------      ----- ------------  ---------------
    13      1.803293  1 B  px                50     -1.477580  2 H  px         
    59     -1.477580  3 H  px                52      1.368008  2 H  pz         
    61     -1.368008  3 H  pz                30      1.216749  1 B  dxz        
    10     -0.534890  1 B  px                24      0.379038  1 B  dxz        
    45     -0.266968  2 H  s                 54      0.266968  3 H  s          

 Vector   19  Occ=0.000000D+00  E= 3.558901D-01
              MO Center=  2.0D-09, -8.0D-10, -6.4D-01, r^2= 7.4D+00
   Bfn.  Coefficient  Atom+Function         Bfn.  Coefficient  Atom+Function  
  ----- ------------  ---------------      ----- ------------  ---------------
     5      7.916197  1 B  s                 46     -4.196198  2 H  s          
    55     -4.196198  3 H  s                 33     -2.745488  1 B  dzz        
    52     -2.731843  2 H  pz                61     -2.731843  3 H  pz         
    15      2.185031  1 B  pz                 4      2.098908  1 B  s          
     6      1.516879  1 B  s                 31     -1.510070  1 B  dyy        

 Vector   20  Occ=0.000000D+00  E= 3.616705D-01
              MO Center= -2.5D-10, -1.1D-09, -1.4D-01, r^2= 7.4D+00
   Bfn.  Coefficient  Atom+Function         Bfn.  Coefficient  Atom+Function  
  ----- ------------  ---------------      ----- ------------  ---------------
    29      3.285650  1 B  dxy               51      2.314132  2 H  py         
    60     -2.314132  3 H  py                23      0.254658  1 B  dxy        
    17     -0.092094  1 B  dxy        

 Vector   21  Occ=0.000000D+00  E= 3.761748D-01
              MO Center=  2.3D-10,  3.1D-10, -4.3D-01, r^2= 6.8D+00
   Bfn.  Coefficient  Atom+Function         Bfn.  Coefficient  Atom+Function  
  ----- ------------  ---------------      ----- ------------  ---------------
    14      2.601071  1 B  py                51     -2.225618  2 H  py         
    60     -2.225618  3 H  py                32     -1.463342  1 B  dyz        
    11      1.200821  1 B  py                26     -0.177126  1 B  dyz        
    42     -0.177942  1 B  fyzz              40     -0.172359  1 B  fyyy       
    35     -0.146766  1 B  fxxy               8      0.094480  1 B  py         

 Vector   22  Occ=0.000000D+00  E= 4.426307D-01
              MO Center=  1.1D-09,  1.1D-10, -3.7D-01, r^2= 9.8D+00
   Bfn.  Coefficient  Atom+Function         Bfn.  Coefficient  Atom+Function  
  ----- ------------  ---------------      ----- ------------  ---------------
     6      7.517121  1 B  s                  5      6.300732  1 B  s          
    33     -4.570755  1 B  dzz               31     -4.253345  1 B  dyy        
     3     -4.125883  1 B  s                 28     -3.503460  1 B  dxx        
    22     -2.933447  1 B  dxx               27     -2.923926  1 B  dzz        
    25     -2.884488  1 B  dyy               46      1.703178  2 H  s          

 Vector   23  Occ=0.000000D+00  E= 4.465202D-01
              MO Center= -9.1D-10,  2.8D-10, -2.5D-01, r^2= 6.6D+00
   Bfn.  Coefficient  Atom+Function         Bfn.  Coefficient  Atom+Function  
  ----- ------------  ---------------      ----- ------------  ---------------
    46      6.073859  2 H  s                 55     -6.073859  3 H  s          
    10      3.664248  1 B  px                50      2.319108  2 H  px         
    59      2.319108  3 H  px                52      1.659003  2 H  pz         
    61     -1.659003  3 H  pz                13      1.251316  1 B  px         
    30      0.869137  1 B  dxz               39     -0.440509  1 B  fxzz       

 Vector   24  Occ=0.000000D+00  E= 4.639507D-01
              MO Center=  9.5D-12,  5.6D-10,  1.3D-01, r^2= 7.0D+00
   Bfn.  Coefficient  Atom+Function         Bfn.  Coefficient  Atom+Function  
  ----- ------------  ---------------      ----- ------------  ---------------
     5     15.556994  1 B  s                 46     -6.833748  2 H  s          
    55     -6.833748  3 H  s                 28     -4.774469  1 B  dxx        
     6      4.017208  1 B  s                 31     -3.737842  1 B  dyy        
    50     -3.289272  2 H  px                59      3.289272  3 H  px         
    15     -2.903497  1 B  pz                12     -2.831374  1 B  pz         

 Vector   25  Occ=0.000000D+00  E= 6.076207D-01
              MO Center= -2.0D-10,  1.3D-09,  4.1D-02, r^2= 4.5D+00
   Bfn.  Coefficient  Atom+Function         Bfn.  Coefficient  Atom+Function  
  ----- ------------  ---------------      ----- ------------  ---------------
    46      3.254694  2 H  s                 55     -3.254694  3 H  s          
    13      2.645250  1 B  px                24     -1.995831  1 B  dxz        
    30     -1.467533  1 B  dxz               52     -0.856166  2 H  pz         
    61      0.856166  3 H  pz                45     -0.347962  2 H  s          
    54      0.347962  3 H  s                 10     -0.251497  1 B  px         

 Vector   26  Occ=0.000000D+00  E= 6.314734D-01
              MO Center=  1.1D-10, -1.2D-09,  4.8D-01, r^2= 4.4D+00
   Bfn.  Coefficient  Atom+Function         Bfn.  Coefficient  Atom+Function  
  ----- ------------  ---------------      ----- ------------  ---------------
     5     11.854785  1 B  s                 46     -6.659738  2 H  s          
    55     -6.659738  3 H  s                 33     -2.056888  1 B  dzz        
    15     -1.600146  1 B  pz                31     -1.505202  1 B  dyy        
    50     -1.099436  2 H  px                59      1.099436  3 H  px         
    25     -0.858953  1 B  dyy               22      0.836594  1 B  dxx        

 Vector   27  Occ=0.000000D+00  E= 6.456010D-01
              MO Center=  5.2D-11,  6.4D-10,  2.5D-01, r^2= 3.5D+00
   Bfn.  Coefficient  Atom+Function         Bfn.  Coefficient  Atom+Function  
  ----- ------------  ---------------      ----- ------------  ---------------
    26      2.162536  1 B  dyz               32     -0.707146  1 B  dyz        
    14     -0.656760  1 B  py                51      0.469644  2 H  py         
    60      0.469644  3 H  py                42     -0.075965  1 B  fyzz       
    20     -0.046003  1 B  dyz               35     -0.033461  1 B  fxxy       

 Vector   28  Occ=0.000000D+00  E= 6.556788D-01
              MO Center=  1.7D-11, -1.4D-09, -4.3D-02, r^2= 3.7D+00
   Bfn.  Coefficient  Atom+Function         Bfn.  Coefficient  Atom+Function  
  ----- ------------  ---------------      ----- ------------  ---------------
    23      2.501286  1 B  dxy               51      1.357173  2 H  py         
    60     -1.357173  3 H  py                29      0.815323  1 B  dxy        
    38     -0.097320  1 B  fxyz              17     -0.035911  1 B  dxy        

 Vector   29  Occ=0.000000D+00  E= 6.978690D-01
              MO Center= -3.6D-11,  5.2D-10, -9.6D-02, r^2= 4.7D+00
   Bfn.  Coefficient  Atom+Function         Bfn.  Coefficient  Atom+Function  
  ----- ------------  ---------------      ----- ------------  ---------------
     5      8.296300  1 B  s                 46     -5.118014  2 H  s          
    55     -5.118014  3 H  s                 52     -1.665344  2 H  pz         
    61     -1.665344  3 H  pz                31     -1.384455  1 B  dyy        
    33     -1.338411  1 B  dzz               22      1.169445  1 B  dxx        
     4     -1.131979  1 B  s                 25      0.929336  1 B  dyy        

 Vector   30  Occ=0.000000D+00  E= 8.239388D-01
              MO Center=  4.6D-11, -5.6D-10,  9.5D-02, r^2= 3.3D+00
   Bfn.  Coefficient  Atom+Function         Bfn.  Coefficient  Atom+Function  
  ----- ------------  ---------------      ----- ------------  ---------------
    11      3.115924  1 B  py                 8     -1.114160  1 B  py         
    35     -0.915807  1 B  fxxy              40     -0.881162  1 B  fyyy       
    42     -0.875901  1 B  fyzz              51     -0.476470  2 H  py         
    60     -0.476470  3 H  py                14     -0.393465  1 B  py         
    32     -0.250249  1 B  dyz               26     -0.212555  1 B  dyz        

 Vector   31  Occ=0.000000D+00  E= 8.752094D-01
              MO Center= -8.7D-10,  6.8D-10,  7.4D-03, r^2= 4.0D+00
   Bfn.  Coefficient  Atom+Function         Bfn.  Coefficient  Atom+Function  
  ----- ------------  ---------------      ----- ------------  ---------------
     4      7.688873  1 B  s                  3     -3.507218  1 B  s          
    25     -3.385395  1 B  dyy               27     -3.157963  1 B  dzz        
     5      2.752728  1 B  s                 45     -2.451701  2 H  s          
    54     -2.451701  3 H  s                  6      2.097999  1 B  s          
    33     -1.966387  1 B  dzz               15      1.718872  1 B  pz         

 Vector   32  Occ=0.000000D+00  E= 8.845483D-01
              MO Center=  1.2D-09,  1.2D-10, -1.9D-01, r^2= 3.5D+00
   Bfn.  Coefficient  Atom+Function         Bfn.  Coefficient  Atom+Function  
  ----- ------------  ---------------      ----- ------------  ---------------
    46      3.354705  2 H  s                 55     -3.354705  3 H  s          
    24      2.758852  1 B  dxz               45     -2.506346  2 H  s          
    54      2.506346  3 H  s                 13      2.058025  1 B  px         
    30     -1.053386  1 B  dxz                7     -0.712342  1 B  px         
    34     -0.585677  1 B  fxxx              39     -0.505012  1 B  fxzz       

 Vector   33  Occ=0.000000D+00  E= 1.006059D+00
              MO Center=  1.7D-10, -7.1D-10,  3.1D-01, r^2= 5.8D+00
   Bfn.  Coefficient  Atom+Function         Bfn.  Coefficient  Atom+Function  
  ----- ------------  ---------------      ----- ------------  ---------------
     5     12.590037  1 B  s                  4      8.318221  1 B  s          
     3     -7.938196  1 B  s                 22     -7.491046  1 B  dxx        
    27     -6.499063  1 B  dzz               25     -6.347556  1 B  dyy        
     6      5.645385  1 B  s                 31     -4.258009  1 B  dyy        
    28     -3.990998  1 B  dxx               33     -3.989904  1 B  dzz        

 Vector   34  Occ=0.000000D+00  E= 1.050890D+00
              MO Center= -3.2D-10, -1.5D-11, -2.6D-02, r^2= 4.0D+00
   Bfn.  Coefficient  Atom+Function         Bfn.  Coefficient  Atom+Function  
  ----- ------------  ---------------      ----- ------------  ---------------
     5     14.749487  1 B  s                 46     -9.046166  2 H  s          
    55     -9.046166  3 H  s                 12     -6.075123  1 B  pz         
     4      3.647154  1 B  s                 50     -3.256716  2 H  px         
    59      3.256716  3 H  px                28     -2.734032  1 B  dxx        
    31     -2.222580  1 B  dyy               22      2.161366  1 B  dxx        

 Vector   35  Occ=0.000000D+00  E= 1.116823D+00
              MO Center=  1.6D-10, -4.1D-11, -2.0D-01, r^2= 3.9D+00
   Bfn.  Coefficient  Atom+Function         Bfn.  Coefficient  Atom+Function  
  ----- ------------  ---------------      ----- ------------  ---------------
    10      8.621970  1 B  px                46      5.795631  2 H  s          
    55     -5.795631  3 H  s                 24     -3.022205  1 B  dxz        
    50      2.362734  2 H  px                59      2.362734  3 H  px         
    45      2.075845  2 H  s                 54     -2.075845  3 H  s          
     7     -1.292034  1 B  px                37     -1.214514  1 B  fxyy       

 Vector   36  Occ=0.000000D+00  E= 1.610903D+00
              MO Center= -3.8D-10,  3.6D-10,  2.3D-02, r^2= 1.9D+00
   Bfn.  Coefficient  Atom+Function         Bfn.  Coefficient  Atom+Function  
  ----- ------------  ---------------      ----- ------------  ---------------
    24      1.437492  1 B  dxz               39      1.028756  1 B  fxzz       
    10     -0.788372  1 B  px                45     -0.622429  2 H  s          
    54      0.622429  3 H  s                 30     -0.604141  1 B  dxz        
    46     -0.604820  2 H  s                 55      0.604820  3 H  s          
    34     -0.597771  1 B  fxxx              18     -0.417363  1 B  dxz        

 Vector   37  Occ=0.000000D+00  E= 1.634220D+00
              MO Center= -3.1D-09, -3.2D-10, -1.4D-01, r^2= 1.7D+00
   Bfn.  Coefficient  Atom+Function         Bfn.  Coefficient  Atom+Function  
  ----- ------------  ---------------      ----- ------------  ---------------
    35      1.511129  1 B  fxxy              14      0.697580  1 B  py         
    51     -0.489219  2 H  py                60     -0.489219  3 H  py         
    32     -0.436295  1 B  dyz               48      0.423488  2 H  py         
    57      0.423488  3 H  py                26      0.370070  1 B  dyz        
    40     -0.320030  1 B  fyyy              20     -0.248533  1 B  dyz        

 Vector   38  Occ=0.000000D+00  E= 1.657925D+00
              MO Center=  2.9D-09, -3.7D-10, -8.7D-03, r^2= 1.8D+00
   Bfn.  Coefficient  Atom+Function         Bfn.  Coefficient  Atom+Function  
  ----- ------------  ---------------      ----- ------------  ---------------
    38      2.198447  1 B  fxyz              23      1.016449  1 B  dxy        
    17     -0.664568  1 B  dxy               29     -0.660055  1 B  dxy        
    48      0.423097  2 H  py                57     -0.423097  3 H  py         
    51     -0.265831  2 H  py                60      0.265831  3 H  py         

 Vector   39  Occ=0.000000D+00  E= 1.813081D+00
              MO Center=  2.5D-10,  5.7D-11,  6.5D-02, r^2= 1.5D+00
   Bfn.  Coefficient  Atom+Function         Bfn.  Coefficient  Atom+Function  
  ----- ------------  ---------------      ----- ------------  ---------------
     4      4.431838  1 B  s                  3     -1.953098  1 B  s          
     5      1.903946  1 B  s                 41      1.783358  1 B  fyyz       
    27     -1.577546  1 B  dzz               25     -1.244767  1 B  dyy        
    46     -0.960537  2 H  s                 55     -0.960537  3 H  s          
    43     -0.801650  1 B  fzzz              45     -0.525930  2 H  s          

 Vector   40  Occ=0.000000D+00  E= 1.841641D+00
              MO Center=  2.8D-12,  2.7D-10,  1.4D-01, r^2= 1.3D+00
   Bfn.  Coefficient  Atom+Function         Bfn.  Coefficient  Atom+Function  
  ----- ------------  ---------------      ----- ------------  ---------------
    42      2.363578  1 B  fyzz              35     -0.688120  1 B  fxxy       
    40     -0.670760  1 B  fyyy              20     -0.248096  1 B  dyz        
    26      0.222080  1 B  dyz               11      0.073734  1 B  py         
    32     -0.060621  1 B  dyz               14     -0.041398  1 B  py         
     8      0.034610  1 B  py         

 Vector   41  Occ=0.000000D+00  E= 1.904627D+00
              MO Center=  1.9D-10, -9.9D-10, -6.8D-03, r^2= 1.9D+00
   Bfn.  Coefficient  Atom+Function         Bfn.  Coefficient  Atom+Function  
  ----- ------------  ---------------      ----- ------------  ---------------
     4     13.188495  1 B  s                  3     -6.297497  1 B  s          
[...]
 ------------------
           1.597460010499           0.000000000000           0.000000000000
           0.000000000000           9.750533027854           0.000000000000
           0.000000000000           0.000000000000           8.153073017355

     Multipole analysis of the density
     ---------------------------------

     L   x y z        total         alpha         beta         nuclear
     -   - - -        -----         -----         ----         -------
     0   0 0 0     -0.000000     -4.000000     -3.000000      7.000000

     1   1 0 0     -0.000000      0.000000     -0.000000      0.000000
     1   0 1 0      0.000000      0.000000     -0.000000      0.000000
     1   0 0 1     -0.204262     -0.640631      0.436369      0.000000

     2   2 0 0     -6.132755     -7.697038     -6.525487      8.089771
     2   1 1 0      0.000000      0.000000      0.000000      0.000000
     2   1 0 1      0.000000      0.000000      0.000000      0.000000
     2   0 2 0     -4.963295     -3.100979     -1.862317      0.000000
     2   0 1 1      0.000000      0.000000     -0.000000      0.000000
     2   0 0 2     -6.998941     -6.120425     -2.217986      1.339470

  int_init: cando_txs set to always be  F
                                NWChem TDDFT Module
                                -------------------


            General Information
            -------------------
           No. of orbitals :     122
            Alpha orbitals :      61
             Beta orbitals :      61
        Alpha frozen cores :       0
         Beta frozen cores :       0
     Alpha frozen virtuals :       0
      Beta frozen virtuals :       0
         Spin multiplicity :       2
    Number of AO functions :      61
        Use of symmetry is : off
      Symmetry adaption is : off
         Schwarz screening :  0.10D-07

              XC Information
              --------------
              Hartree-Fock (Exact) Exchange   1.00          
              LC-wPBE(h)Exchange Functional   1.00          
     Perdew 1991 LDA Correlation Functional   1.00 local    
    PerdewBurkeErnz. Correlation Functional   1.00 non-local
           Alpha           :  0.00
           Beta            :  1.00
           Gamma           :  0.36

             TDDFT Information
             -----------------
          Calculation type : Tamm-Dancoff TDDFT
         Wavefunction type : Unrestricted
          No. of electrons :       7
           Alpha electrons :       4
            Beta electrons :       3
              No. of roots :      10
          Max subspacesize :    6000
            Max iterations :     100
               Target root :       1
           Target symmetry : none
      Symmetry restriction : off
                 Algorithm : Optimal
        Davidson threshold :  0.10D-03

            Memory Information
            ------------------
          Available GA space size is       47185912558 doubles
          Available MA space size is         419534276 doubles
          Length of a trial vector is          228     174
          Algorithm : Incore multiple tensor contraction
          Estimated peak GA usage is           8453066 doubles
          Estimated peak MA usage is             51000 doubles

   10 smallest eigenvalue differences (eV) 
--------------------------------------------------------
  No. Spin  Occ  Vir  Irrep   E(Occ)    E(Vir)   E(Diff)
--------------------------------------------------------
    1    1    4    5 a        -0.326    -0.002     8.801
    2    1    4    6 a        -0.326     0.039     9.918
    3    1    4    7 a        -0.326     0.135    12.528
    4    1    4    8 a        -0.326     0.145    12.801
    5    1    4    9 a        -0.326     0.152    12.989
    6    1    4   10 a        -0.326     0.160    13.210
    7    1    3    5 a        -0.491    -0.002    13.307
    8    1    4   11 a        -0.326     0.168    13.442
    9    1    4   12 a        -0.326     0.169    13.463
   10    2    3    4 a        -0.483     0.018    13.620
--------------------------------------------------------

  Entering Davidson iterations
  Unrestricted

  Iter   NTrls   NConv    DeltaV     DeltaE      Time   
  ----  ------  ------  ---------  ---------  --------- 
    1     10       0     0.74E-01   0.10+100       10.7
    2     20       0     0.31E-01   0.15E-01       10.8
    3     30       0     0.11E+00   0.36E-02       11.3
    4     40       0     0.71E-01   0.25E-01       11.1
    5     50       3     0.30E-01   0.67E-02       11.1
    6     57       5     0.81E-02   0.71E-03        7.9
    7     62       6     0.21E-02   0.53E-04        6.0
    8     66       7     0.48E-03   0.27E-05        4.8
    9     69      10     0.71E-04   0.14E-06        3.8
  ----  ------  ------  ---------  ---------  --------- 
  Convergence criterion met

  Ground state a         -25.909527342687 a.u.
  <S2> =   0.7520

  ----------------------------------------------------------------------------
  Root   1         a              0.047138483 a.u.                1.2827 eV 
  <S2> =   0.7551
  ----------------------------------------------------------------------------
     Transition Moments    X  0.00000   Y  0.33308   Z  0.00000
     Transition Moments   XX  0.00000  XY  0.00000  XZ  0.00000
     Transition Moments   YY -0.00000  YZ  1.26764  ZZ  0.00000
     Dipole Oscillator Strength                    0.0034864588
     Electric Quadrupole                           0.0000000009
     Magnetic Dipole                               0.0000003955
     Total Oscillator Strength                     0.0034868552

     Occ.    4 alpha a   ---  Virt.    5 alpha a       -0.98236
     Occ.    4 alpha a   ---  Virt.   15 alpha a        0.16935
  ----------------------------------------------------------------------------
  Root   2         a              0.197221902 a.u.                5.3667 eV 
  <S2> =   2.6852
  ----------------------------------------------------------------------------
     Transition Moments    X -0.00000   Y  0.00000   Z  0.00000
     Transition Moments   XX  0.00000  XY  0.22414  XZ -0.00000
     Transition Moments   YY  0.00000  YZ  0.00000  ZZ  0.00000
     Dipole Oscillator Strength                    0.0000000000
     Electric Quadrupole                           0.0000000021
     Magnetic Dipole                               0.0000000963
     Total Oscillator Strength                     0.0000000984

     Occ.    3 alpha a   ---  Virt.    5 alpha a       -0.80471
     Occ.    3 alpha a   ---  Virt.   15 alpha a        0.15573
     Occ.    3 beta  a   ---  Virt.    4 beta  a        0.55060
     Occ.    3 beta  a   ---  Virt.   15 beta  a       -0.13085
  ----------------------------------------------------------------------------
  Root   3         a              0.212877964 a.u.                5.7927 eV 
  <S2> =   0.7626
  ----------------------------------------------------------------------------
     Transition Moments    X -0.00000   Y -0.00000   Z  0.65185
     Transition Moments   XX -0.01627  XY  0.00000  XZ  0.00000
     Transition Moments   YY  0.58688  YZ -0.00000  ZZ  0.89150
     Dipole Oscillator Strength                    0.0603015309
     Electric Quadrupole                           0.0000000110
     Magnetic Dipole                               0.0000000000
     Total Oscillator Strength                     0.0603015419

     Occ.    4 alpha a   ---  Virt.    6 alpha a       -0.93597
     Occ.    4 alpha a   ---  Virt.   11 alpha a        0.32717
     Occ.    4 alpha a   ---  Virt.   14 alpha a        0.07092
     Occ.    4 alpha a   ---  Virt.   22 alpha a       -0.06170
  ----------------------------------------------------------------------------
  Root   4         a              0.234654793 a.u.                6.3853 eV 
  <S2> =   0.8182
  ----------------------------------------------------------------------------
     Transition Moments    X  0.00000   Y  0.00000   Z  0.00000
     Transition Moments   XX -0.00000  XY -1.39289  XZ -0.00000
     Transition Moments   YY  0.00000  YZ -0.00000  ZZ -0.00000
     Dipole Oscillator Strength                    0.0000000000
     Electric Quadrupole                           0.0000001335
     Magnetic Dipole                               0.0000036317
     Total Oscillator Strength                     0.0000037652

     Occ.    3 alpha a   ---  Virt.    5 alpha a        0.56294
     Occ.    3 alpha a   ---  Virt.   15 alpha a       -0.07835
     Occ.    3 beta  a   ---  Virt.    4 beta  a        0.80737
     Occ.    3 beta  a   ---  Virt.   15 beta  a       -0.14642
  ----------------------------------------------------------------------------
  Root   5         a              0.242073138 a.u.                6.5871 eV 
  <S2> =   0.7835
  ----------------------------------------------------------------------------
     Transition Moments    X  0.06742   Y  0.00000   Z  0.00000
     Transition Moments   XX -0.00000  XY  0.00000  XZ -1.09402
     Transition Moments   YY  0.00000  YZ -0.00000  ZZ  0.00000
     Dipole Oscillator Strength                    0.0007336608
     Electric Quadrupole                           0.0000000904
     Magnetic Dipole                               0.0000017896
     Total Oscillator Strength                     0.0007355408

     Occ.    4 alpha a   ---  Virt.    7 alpha a        0.08053
     Occ.    4 alpha a   ---  Virt.   10 alpha a       -0.05333
     Occ.    3 beta  a   ---  Virt.    5 beta  a        0.88952
     Occ.    3 beta  a   ---  Virt.    6 beta  a       -0.36833
     Occ.    3 beta  a   ---  Virt.    9 beta  a       -0.07902
     Occ.    3 beta  a   ---  Virt.   12 beta  a        0.13113
     Occ.    3 beta  a   ---  Virt.   14 beta  a        0.15864
  ----------------------------------------------------------------------------
  Root   6         a              0.274454739 a.u.                7.4683 eV 
  <S2> =   0.7716
  ----------------------------------------------------------------------------
     Transition Moments    X  0.00000   Y -0.00000   Z  0.28188
     Transition Moments   XX  0.08424  XY  0.00000  XZ  0.00000
     Transition Moments   YY  0.36810  YZ -0.00000  ZZ  0.04725
     Dipole Oscillator Strength                    0.0145383981
     Electric Quadrupole                           0.0000000034
     Magnetic Dipole                               0.0000000000
     Total Oscillator Strength                     0.0145384015

     Occ.    4 alpha a   ---  Virt.    6 alpha a       -0.08445
     Occ.    4 alpha a   ---  Virt.    8 alpha a        0.91619
     Occ.    4 alpha a   ---  Virt.    9 alpha a        0.19181
     Occ.    4 alpha a   ---  Virt.   11 alpha a       -0.06804
     Occ.    4 alpha a   ---  Virt.   14 alpha a       -0.12117
     Occ.    4 alpha a   ---  Virt.   16 alpha a       -0.24150
     Occ.    4 alpha a   ---  Virt.   18 alpha a       -0.15446
     Occ.    2 beta  a   ---  Virt.    5 beta  a        0.07401
  ----------------------------------------------------------------------------
  Root   7         a              0.278361063 a.u.                7.5746 eV 
  <S2> =   0.7650
  ----------------------------------------------------------------------------
     Transition Moments    X  0.35485   Y -0.00000   Z -0.00000
     Transition Moments   XX  0.00000  XY -0.00000  XZ  1.67408
     Transition Moments   YY -0.00000  YZ -0.00000  ZZ -0.00000
     Dipole Oscillator Strength                    0.0233677258
     Electric Quadrupole                           0.0000003219
     Magnetic Dipole                               0.0000001793
     Total Oscillator Strength                     0.0233682270

     Occ.    4 alpha a   ---  Virt.    7 alpha a       -0.81936
     Occ.    4 alpha a   ---  Virt.   10 alpha a       -0.55522
     Occ.    4 alpha a   ---  Virt.   24 alpha a        0.10679
  ----------------------------------------------------------------------------
  Root   8         a              0.291064692 a.u.                7.9203 eV 
  <S2> =   0.7745
  ----------------------------------------------------------------------------
     Transition Moments    X  0.80386   Y  0.00000   Z -0.00000
     Transition Moments   XX  0.00000  XY  0.00000  XZ  0.36348
     Transition Moments   YY  0.00000  YZ  0.00000  ZZ -0.00000
     Dipole Oscillator Strength                    0.1253884488
     Electric Quadrupole                           0.0000000173
     Magnetic Dipole                               0.0000002420
     Total Oscillator Strength                     0.1253887082

     Occ.    3 alpha a   ---  Virt.    6 alpha a       -0.05283
     Occ.    4 alpha a   ---  Virt.    7 alpha a        0.53326
     Occ.    4 alpha a   ---  Virt.   10 alpha a       -0.80184
     Occ.    4 alpha a   ---  Virt.   17 alpha a        0.19204
     Occ.    4 alpha a   ---  Virt.   24 alpha a       -0.08743
     Occ.    3 beta  a   ---  Virt.    5 beta  a       -0.08793
     Occ.    3 beta  a   ---  Virt.    8 beta  a        0.05348
  ----------------------------------------------------------------------------
  Root   9         a              0.299943449 a.u.                8.1619 eV 
  <S2> =   0.7788
  ----------------------------------------------------------------------------
     Transition Moments    X  0.00000   Y -0.00000   Z  0.34970
     Transition Moments   XX  0.44632  XY  0.00000  XZ -0.00000
     Transition Moments   YY  0.90775  YZ -0.00000  ZZ  3.34790
     Dipole Oscillator Strength                    0.0244530879
     Electric Quadrupole                           0.0000003493
     Magnetic Dipole                               0.0000000000
     Total Oscillator Strength                     0.0244534372

     Occ.    4 alpha a   ---  Virt.    6 alpha a        0.06868
     Occ.    4 alpha a   ---  Virt.    8 alpha a       -0.12430
     Occ.    4 alpha a   ---  Virt.    9 alpha a        0.86154
     Occ.    4 alpha a   ---  Virt.   14 alpha a        0.44237
     Occ.    4 alpha a   ---  Virt.   23 alpha a       -0.08514
     Occ.    2 beta  a   ---  Virt.    6 beta  a        0.06249
     Occ.    3 beta  a   ---  Virt.    7 beta  a        0.09723
  ----------------------------------------------------------------------------
  Root  10         a              0.309100409 a.u.                8.4111 eV 
  <S2> =   0.7615
  ----------------------------------------------------------------------------
     Transition Moments    X  0.00000   Y  0.00000   Z -0.00000
     Transition Moments   XX  0.00000  XY -0.56741  XZ  0.00000
     Transition Moments   YY  0.00000  YZ  0.00000  ZZ  0.00000
     Dipole Oscillator Strength                    0.0000000000
     Electric Quadrupole                           0.0000000506
     Magnetic Dipole                               0.0000000415
     Total Oscillator Strength                     0.0000000921

     Occ.    4 alpha a   ---  Virt.   12 alpha a        0.98888
     Occ.    4 alpha a   ---  Virt.   20 alpha a       -0.12419
     Occ.    4 alpha a   ---  Virt.   28 alpha a        0.07258

              Target root =      1
          Target symmetry = none
      Ground state energy =    -25.909527342687
        Excitation energy =      0.047138482615
     Excited state energy =    -25.862388860071

  stored tddft:energy   -25.862388860071484     

 Task  times  cpu:       70.6s     wall:       81.8s


                                NWChem Input Module
                                -------------------


 Summary of allocated global arrays
-----------------------------------
  No active global arrays


MA_summarize_allocated_blocks: starting scan ...
heap block 'gridpts', handle 117, address 0x132e7428:
	type of elements:		double precision
	number of elements:		104752412
	address of client space:	0x132e7480
	index for client space:		12069351
	total number of bytes:		838019392
MA_summarize_allocated_blocks: scan completed: 1 heap block, 0 stack blocks
MA usage statistics:

	allocation statistics:
					      heap	     stack
					      ----	     -----
	current number of blocks	         1	         0
	maximum number of blocks	        18	        53
	current total bytes		 838019392	         0
	maximum total bytes		 838419104	  22513976
	maximum total K-bytes		    838420	     22514
	maximum total M-bytes		       839	        23


                                     CITATION
                                     --------
                Please cite the following reference when publishing
                           results obtained with NWChem:

          E. Apra, E. J. Bylaska, W. A. de Jong, N. Govind, K. Kowalski,
       T. P. Straatsma, M. Valiev, H. J. J. van Dam, Y. Alexeev, J. Anchell,
       V. Anisimov, F. W. Aquino, R. Atta-Fynn, J. Autschbach, N. P. Bauman,
     J. C. Becca, D. E. Bernholdt, K. Bhaskaran-Nair, S. Bogatko, P. Borowski,
         J. Boschen, J. Brabec, A. Bruner, E. Cauet, Y. Chen, G. N. Chuev,
      C. J. Cramer, J. Daily, M. J. O. Deegan, T. H. Dunning Jr., M. Dupuis,
   K. G. Dyall, G. I. Fann, S. A. Fischer, A. Fonari, H. Fruchtl, L. Gagliardi,
      J. Garza, N. Gawande, S. Ghosh, K. Glaesemann, A. W. Gotz, J. Hammond,
       V. Helms, E. D. Hermes, K. Hirao, S. Hirata, M. Jacquelin, L. Jensen,
   B. G. Johnson, H. Jonsson, R. A. Kendall, M. Klemm, R. Kobayashi, V. Konkov,
      S. Krishnamoorthy, M. Krishnan, Z. Lin, R. D. Lins, R. J. Littlefield,
      A. J. Logsdail, K. Lopata, W. Ma, A. V. Marenich, J. Martin del Campo,
   D. Mejia-Rodriguez, J. E. Moore, J. M. Mullin, T. Nakajima, D. R. Nascimento,
    J. A. Nichols, P. J. Nichols, J. Nieplocha, A. Otero-de-la-Roza, B. Palmer,
    A. Panyala, T. Pirojsirikul, B. Peng, R. Peverati, J. Pittner, L. Pollack,
   R. M. Richard, P. Sadayappan, G. C. Schatz, W. A. Shelton, D. W. Silverstein,
   D. M. A. Smith, T. A. Soares, D. Song, M. Swart, H. L. Taylor, G. S. Thomas,
            V. Tipparaju, D. G. Truhlar, K. Tsemekhman, T. Van Voorhis,
      A. Vazquez-Mayagoitia, P. Verma, O. Villa, A. Vishnu, K. D. Vogiatzis,
        D. Wang, J. H. Weare, M. J. Williamson, T. L. Windus, K. Wolinski,
        A. T. Wong, Q. Wu, C. Yang, Q. Yu, M. Zacharias, Z. Zhang, Y. Zhao,
                                and R. J. Harrison
                        "NWChem: Past, present, and future
                         J. Chem. Phys. 152, 184102 (2020)
                               doi:10.1063/5.0004997

                                      AUTHORS
                                      -------
  E. Apra, E. J. Bylaska, N. Govind, K. Kowalski, M. Valiev, D. Mejia-Rodriguez,
       A. Kunitsa, N. P. Bauman, A. Panyala, W. A. de Jong, T. P. Straatsma,
   H. J. J. van Dam, D. Wang, T. L. Windus, J. Hammond, J. Autschbach, A. Woods,
    K. Bhaskaran-Nair, J. Brabec, K. Lopata, S. A. Fischer, S. Krishnamoorthy,
     M. Jacquelin, W. Ma, M. Klemm, O. Villa, Y. Chen, V. Anisimov, F. Aquino,
     S. Hirata, M. T. Hackler, E. Hermes, L. Jensen, J. E. Moore, J. C. Becca,
      V. Konjkov, T. Risthaus, M. Malagoli, A. Marenich, A. Otero-de-la-Roza,
        J. Mullin, P. Nichols, R. Peverati, J. Pittner, Y. Zhao, P.-D. Fan,
        A. Fonari, M. J. Williamson, R. J. Harrison, J. R. Rehr, M. Dupuis,
     D. Silverstein, D. M. A. Smith, J. Nieplocha, V. Tipparaju, M. Krishnan,
     B. E. Van Kuiken, A. Vazquez-Mayagoitia, M. Swart, Q. Wu, T. Van Voorhis,
     A. A. Auer, M. Nooijen, L. D. Crosby, E. Brown, G. Cisneros, G. I. Fann,
   H. Fruchtl, J. Garza, K. Hirao, R. A. Kendall, J. A. Nichols, K. Tsemekhman,
    K. Wolinski, J. Anchell, D. E. Bernholdt, P. Borowski, T. Clark, D. Clerc,
   H. Dachsel, M. J. O. Deegan, K. Dyall, D. Elwood, E. Glendening, M. Gutowski,
   A. C. Hess, J. Jaffe, B. G. Johnson, J. Ju, R. Kobayashi, R. Kutteh, Z. Lin,
   R. Littlefield, X. Long, B. Meng, T. Nakajima, S. Niu, L. Pollack, M. Rosing,
   K. Glaesemann, G. Sandrone, M. Stave, H. Taylor, G. Thomas, J. H. van Lenthe,
                               A. T. Wong, Z. Zhang.

 Total times  cpu:       70.6s     wall:       82.2s
