 argument  1 = /home/aditisingh4812/nw_chem/nwchem-run/nwchem-run/tddft/open/gdd_open/geom-MOL/cn.nw
                                         
                                         


             Northwest Computational Chemistry Package (NWChem) 7.2.3
             --------------------------------------------------------


                    Environmental Molecular Sciences Laboratory
                       Pacific Northwest National Laboratory
                                Richland, WA 99352

                              Copyright (c) 1994-2022
                       Pacific Northwest National Laboratory
                            Battelle Memorial Institute

             NWChem is an open-source computational chemistry package
                        distributed under the terms of the
                      Educational Community License (ECL) 2.0
             A copy of the license is included with this distribution
                              in the LICENSE.TXT file

                                  ACKNOWLEDGMENT
                                  --------------

            This software and its documentation were developed at the
            EMSL at Pacific Northwest National Laboratory, a multiprogram
            national laboratory, operated for the U.S. Department of Energy
            by Battelle under Contract Number DE-AC05-76RL01830. Support
            for this work was provided by the Department of Energy Office
            of Biological and Environmental Research, Office of Basic
            Energy Sciences, and the Office of Advanced Scientific Computing.


           Job information
           ---------------

    hostname        = p17
    program         = /home/aditisingh4812/nw_chem/nwchem-7.2.3-release.revision-d690e065-srconly.2024-08-27/nwchem-7.2.3/bin/LINUX64/nwchem
    date            = Thu May  8 12:05:30 2025

    compiled        = Mon_Apr_07_18:51:54_2025
    source          = /home/aditisingh4812/nw_chem/nwchem-7.2.3-release.revision-d690e065-srconly.2024-08-27/nwchem-7.2.3
    nwchem branch   = 7.2.3
    nwchem revision = d690e065
    ga revision     = 5.8.0
    use scalapack   = F
    input           = /home/aditisingh4812/nw_chem/nwchem-run/nwchem-run/tddft/open/gdd_open/geom-MOL/cn.nw
    prefix          = cn.
    data base       = ./cn.db
    status          = startup
    nproc           =       72
    time left       =     -1s



           Memory information
           ------------------

    heap     =  262143998 doubles =   2000.0 Mbytes
    stack    =  262143995 doubles =   2000.0 Mbytes
    global   =  655360000 doubles =   5000.0 Mbytes (distinct from heap & stack)
    total    = 1179647993 doubles =   9000.0 Mbytes
    verify   = yes
    hardfail = no 


           Directory information
           ---------------------

  0 permanent = .
  0 scratch   = .




                                NWChem Input Module
                                -------------------



 Scaling coordinates for geometry "geometry" by  1.889725989
 (inverse scale =  0.529177249)



                             Geometry "geometry" -> ""
                             -------------------------

 Output coordinates in angstroms (scale by  1.889725989 to convert to a.u.)

  No.       Tag          Charge          X              Y              Z
 ---- ---------------- ---------- -------------- -------------- --------------
    1 C                    6.0000     0.00000000     0.00000000    -0.62941308
    2 N                    7.0000     0.00000000     0.00000000     0.53949692

      Atomic Mass 
      ----------- 

      C                 12.000000
      N                 14.003070


 Effective nuclear repulsion energy (a.u.)      19.0138201042

            Nuclear Dipole moment (a.u.) 
            ----------------------------
        X                 Y               Z
 ---------------- ---------------- ----------------
     0.0000000000     0.0000000000    -0.0000000000


            XYZ format geometry
            -------------------
     2
 geometry
 C                     0.00000000     0.00000000    -0.62941308
 N                     0.00000000     0.00000000     0.53949692

 ==============================================================================
                                internuclear distances
 ------------------------------------------------------------------------------
       center one      |      center two      | atomic units |  angstroms
 ------------------------------------------------------------------------------
    2 N                |   1 C                |     2.20892  |     1.16891
 ------------------------------------------------------------------------------
                         number of included internuclear distances:          1
 ==============================================================================





 Summary of "ao basis" -> "" (cartesian)
 ------------------------------------------------------------------------------
       Tag                 Description            Shells   Functions and Types
 ---------------- ------------------------------  ------  ---------------------
 *                         def2-TZVPD                 on all atoms 


  pbe96 is a nonlocal functional; adding pw91lda local functional. 

                                 NWChem DFT Module
                                 -----------------


                      Basis "ao basis" -> "ao basis" (cartesian)
                      -----
  C (Carbon)
  ----------
            Exponent  Coefficients 
       -------------- ---------------------------------------------------------
  1 S  1.35753497E+04  0.000222
  1 S  2.03523337E+03  0.001723
  1 S  4.63225624E+02  0.008926
  1 S  1.31200196E+02  0.035728
  1 S  4.28530159E+01  0.110763
  1 S  1.55841858E+01  0.242956

  2 S  6.20671385E+00  0.414403
  2 S  2.57648965E+00  0.237450

  3 S  5.76963394E-01  1.000000

  4 S  2.29728314E-01  1.000000

  5 S  9.51644400E-02  1.000000

  6 S  4.84754014E-02  1.000000

  7 P  3.46972322E+01  0.005333
  7 P  7.95826228E+00  0.035864
  7 P  2.37808269E+00  0.142159
  7 P  8.14332082E-01  0.342705

  8 P  2.88875473E-01  1.000000

  9 P  1.00568237E-01  1.000000

 10 D  1.09700000E+00  1.000000

 11 D  3.18000000E-01  1.000000

 12 D  9.09853364E-02  1.000000

 13 F  7.61000000E-01  1.000000

  N (Nitrogen)
  ------------
            Exponent  Coefficients 
       -------------- ---------------------------------------------------------
  1 S  1.97308006E+04  0.000219
  1 S  2.95789587E+03  0.001696
  1 S  6.73221336E+02  0.008795
  1 S  1.90682495E+02  0.035359
  1 S  6.22954419E+01  0.110958
  1 S  2.26541612E+01  0.249830

  2 S  8.97914774E+00  0.406239
  2 S  3.68630024E+00  0.243382

  3 S  8.46600768E-01  1.000000

  4 S  3.36471338E-01  1.000000

  5 S  1.36476537E-01  1.000000

  6 S  6.84416058E-02  1.000000

  7 P  4.92003805E+01  0.005555
  7 P  1.13467905E+01  0.038052
  7 P  3.42739724E+00  0.149537
  7 P  1.17855251E+00  0.349493

  8 P  4.16422050E-01  1.000000

  9 P  1.42608260E-01  1.000000

 10 D  1.65400000E+00  1.000000

 11 D  4.69000000E-01  1.000000

 12 D  1.28296421E-01  1.000000

 13 F  1.09300000E+00  1.000000



 Summary of "ao basis" -> "ao basis" (cartesian)
 ------------------------------------------------------------------------------
       Tag                 Description            Shells   Functions and Types
 ---------------- ------------------------------  ------  ---------------------
 C                         def2-TZVPD               13       43   6s3p3d1f
 N                         def2-TZVPD               13       43   6s3p3d1f




 Summary of "ao basis" -> "ao basis" (cartesian)
 ------------------------------------------------------------------------------
       Tag                 Description            Shells   Functions and Types
 ---------------- ------------------------------  ------  ---------------------
 C                         def2-TZVPD               13       43   6s3p3d1f
 N                         def2-TZVPD               13       43   6s3p3d1f


  int_init: cando_txs set to always be  F
  Caching 1-el integrals 

            General Information
            -------------------
          SCF calculation type: DFT
          Wavefunction type:  spin polarized.
          No. of atoms     :     2
          No. of electrons :    13
           Alpha electrons :     7
            Beta electrons :     6
          Charge           :     0
          Spin multiplicity:     2
          Use of symmetry is: off; symmetry adaption is: off
          Maximum number of iterations:  50
          AO basis - number of functions:    86
                     number of shells:    26
          Convergence on energy requested:  1.00D-06
          Convergence on density requested:  1.00D-05
          Convergence on gradient requested:  5.00D-04

              XC Information
              --------------
                     Hartree-Fock (Exact) Exchange  1.000          
                     LC-wPBE(h)Exchange Functional  1.000          
            Perdew 1991 LDA Correlation Functional  1.000 local    
           PerdewBurkeErnz. Correlation Functional  1.000 non-local

           Range-Separation Parameters        
           ---------------------------
           Alpha           :  0.00
           Beta            :  1.00
           Gamma           :  0.36
           Short-Range HF  :     F

             Grid Information
             ----------------
          Grid used for XC integration:  xfine     
          Radial quadrature: Mura-Knowles        
          Angular quadrature: Lebedev. 
          Tag              B.-S. Rad. Rad. Pts. Rad. Cut. Ang. Pts.
          ---              ---------- --------- --------- ---------
          C                   0.70      100           9.0      1454
          N                   0.65      100           9.0      1454
          Grid pruning is: on 
          Number of quadrature shells:   200
          Spatial weights used:  Erf1

          Convergence Information
          -----------------------
          Convergence aids based upon iterative change in 
          total energy or number of iterations. 
          Levelshifting, if invoked, occurs when the 
          HOMO/LUMO gap drops below (HL_TOL):  1.00D-02
          DIIS, if invoked, will attempt to extrapolate 
          using up to (NFOCK): 10 stored Fock matrices.

                    Damping( 0%)  Levelshifting(0.5)       DIIS
                  --------------- ------------------- ---------------
          dE  on:    start            ASAP                start   
          dE off:    2 iters         50 iters            50 iters 


      Screening Tolerance Information
      -------------------------------
          Density screening/tol_rho:  1.00D-10
          AO Gaussian exp screening on grid/accAOfunc:  14
          CD Gaussian exp screening on grid/accCDfunc:  20
          XC Gaussian exp screening on grid/accXCfunc:  20
          Schwarz screening/accCoul:  1.00D-08

  
  CAM type calculations without CDFIT are
  only available with the direct option.
  Forcing Direct SCF
  

      Superposition of Atomic Density Guess
      -------------------------------------

 Sum of atomic energies:         -91.98288711

      Non-variational initial energy
      ------------------------------

 Total energy =     -92.333525
 1-e energy   =    -161.420466
 2-e energy   =      50.073121
 HOMO         =      -0.322283
 LUMO         =       0.060593

  WARNING: movecs_in_org=atomic not equal to movecs_in=./cn.movecs
   Time after variat. SCF:      0.7
   Time prior to 1st pass:      0.7

 Grid_pts file          = ./cn.gridpts.00
 Record size in doubles =  12289        No. of grid_pts per rec  =   3070
 Max. records in memory =      3        Max. recs in file   =  14072920


           Memory utilization after 1st SCF pass: 
           Heap Space remaining (MW):      157.35           157352486
          Stack Space remaining (MW):      262.14           262143196

   convergence    iter        energy       DeltaE   RMS-Dens  Diis-err    time
 ---------------- ----- ----------------- --------- --------- ---------  ------
 d= 0,ls=0.0,diis     1    -92.5969489249 -1.12D+02  3.93D-03  1.97D-01     1.2
                                                     3.67D-03  1.65D-01
 d= 0,ls=0.0,diis     2    -92.5507148414  4.62D-02  2.27D-03  2.55D-01     1.7
                                                     2.58D-03  2.58D-01
 d= 0,ls=0.0,diis     3    -92.6458900576 -9.52D-02  7.58D-04  3.21D-02     2.2
                                                     7.34D-04  2.67D-02
 d= 0,ls=0.0,diis     4    -92.6576741665 -1.18D-02  1.66D-04  5.29D-04     2.7
                                                     2.69D-04  4.25D-04
 d= 0,ls=0.0,diis     5    -92.6585084504 -8.34D-04  2.10D-04  2.51D-04     3.1
                                                     3.79D-04  1.82D-04
  Resetting Diis
 d= 0,ls=0.0,diis     6    -92.6594317731 -9.23D-04  3.39D-04  1.09D-04     3.7
                                                     5.68D-04  8.63D-05
 d= 0,ls=0.0,diis     7    -92.6602386553 -8.07D-04  5.40D-05  1.75D-05     4.2
                                                     6.51D-05  1.90D-05
 d= 0,ls=0.0,diis     8    -92.6602928497 -5.42D-05  7.03D-05  1.77D-05     4.7
                                                     6.42D-05  7.57D-06
 d= 0,ls=0.0,diis     9    -92.6603432905 -5.04D-05  6.47D-05  2.53D-06     5.2
                                                     9.92D-05  2.00D-05
 d= 0,ls=0.0,diis    10    -92.6603884921 -4.52D-05  7.18D-05  4.11D-06     5.6
                                                     8.74D-05  1.21D-06
 d= 0,ls=0.0,diis    11    -92.6604072628 -1.88D-05  1.46D-05  1.26D-07     6.1
                                                     2.09D-05  1.75D-07
 d= 0,ls=0.0,diis    12    -92.6604081181 -8.55D-07  2.62D-06  1.01D-08     6.6
                                                     3.22D-06  7.82D-09


         Total DFT energy =      -92.660408118119
      One electron energy =     -162.270224542756
           Coulomb energy =       62.665790561484
    Exchange-Corr. energy =      -12.069794241035
 Nuclear repulsion energy =       19.013820104189

 Numeric. integr. density =       13.000000007723

     Total iterative time =      6.0s



                    DFT Final Alpha Molecular Orbital Analysis
                    ------------------------------------------

 Vector    1  Occ=1.000000D+00  E=-1.424733D+01
              MO Center= -2.7D-10, -2.7D-10,  5.4D-01, r^2= 2.0D-02
   Bfn.  Coefficient  Atom+Function         Bfn.  Coefficient  Atom+Function  
  ----- ------------  ---------------      ----- ------------  ---------------
    45      0.619377  2 N  s                 44      0.449343  2 N  s          
    47     -0.109038  2 N  s                 46      0.099045  2 N  s          

 Vector    2  Occ=1.000000D+00  E=-1.021046D+01
              MO Center= -2.0D-10, -2.0D-10, -6.3D-01, r^2= 2.8D-02
   Bfn.  Coefficient  Atom+Function         Bfn.  Coefficient  Atom+Function  
  ----- ------------  ---------------      ----- ------------  ---------------
     2      0.599151  1 C  s                  1      0.467842  1 C  s          
     3      0.105516  1 C  s                  4     -0.105201  1 C  s          

 Vector    3  Occ=1.000000D+00  E=-1.073903D+00
              MO Center=  4.1D-09,  4.1D-09,  6.7D-02, r^2= 5.3D-01
   Bfn.  Coefficient  Atom+Function         Bfn.  Coefficient  Atom+Function  
  ----- ------------  ---------------      ----- ------------  ---------------
    46      0.322806  2 N  s                  3      0.259670  1 C  s          
    47      0.204823  2 N  s                 45     -0.188324  2 N  s          
     4      0.179663  1 C  s                  9      0.176076  1 C  pz         
    52     -0.160073  2 N  pz                 2     -0.148096  1 C  s          
    12      0.094087  1 C  pz                44     -0.086426  2 N  s          

 Vector    4  Occ=1.000000D+00  E=-6.237114D-01
              MO Center=  2.6D-09,  2.6D-09, -4.8D-01, r^2= 1.4D+00
   Bfn.  Coefficient  Atom+Function         Bfn.  Coefficient  Atom+Function  
  ----- ------------  ---------------      ----- ------------  ---------------
     4      0.441866  1 C  s                  3      0.303685  1 C  s          
    47     -0.255795  2 N  s                 46     -0.209920  2 N  s          
     9     -0.207442  1 C  pz                 2     -0.177207  1 C  s          
     5      0.147255  1 C  s                 12     -0.147080  1 C  pz         
    48     -0.147337  2 N  s                 45      0.122639  2 N  s          

 Vector    5  Occ=1.000000D+00  E=-5.196659D-01
              MO Center=  2.7D-08,  2.7D-08,  2.5D-01, r^2= 1.4D+00
   Bfn.  Coefficient  Atom+Function         Bfn.  Coefficient  Atom+Function  
  ----- ------------  ---------------      ----- ------------  ---------------
    52      0.375739  2 N  pz                 9     -0.332663  1 C  pz         
    47      0.283837  2 N  s                 12     -0.271982  1 C  pz         
    55      0.214640  2 N  pz                48      0.143667  2 N  s          
     5      0.138750  1 C  s                 58      0.121598  2 N  pz         
    46      0.106630  2 N  s                  4      0.104428  1 C  s          

 Vector    6  Occ=1.000000D+00  E=-5.065304D-01
              MO Center= -3.5D-08, -3.5D-08, -1.8D-02, r^2= 1.1D+00
   Bfn.  Coefficient  Atom+Function         Bfn.  Coefficient  Atom+Function  
  ----- ------------  ---------------      ----- ------------  ---------------
    50      0.232875  2 N  px                51      0.232874  2 N  py         
     7      0.229200  1 C  px                 8      0.229199  1 C  py         
    53      0.188147  2 N  px                54      0.188146  2 N  py         
    10      0.181687  1 C  px                11      0.181687  1 C  py         
    56      0.094713  2 N  px                57      0.094713  2 N  py         

 Vector    7  Occ=1.000000D+00  E=-5.065304D-01
              MO Center= -6.2D-10, -6.2D-10, -1.8D-02, r^2= 1.1D+00
   Bfn.  Coefficient  Atom+Function         Bfn.  Coefficient  Atom+Function  
  ----- ------------  ---------------      ----- ------------  ---------------
    50      0.232874  2 N  px                51     -0.232875  2 N  py         
     7      0.229199  1 C  px                 8     -0.229200  1 C  py         
    53      0.188146  2 N  px                54     -0.188147  2 N  py         
    10      0.181687  1 C  px                11     -0.181687  1 C  py         
    56      0.094713  2 N  px                57     -0.094713  2 N  py         

 Vector    8  Occ=0.000000D+00  E= 6.036591D-02
              MO Center= -5.1D-09, -5.1D-09, -1.5D+00, r^2= 1.1D+01
   Bfn.  Coefficient  Atom+Function         Bfn.  Coefficient  Atom+Function  
  ----- ------------  ---------------      ----- ------------  ---------------
     6      7.374478  1 C  s                 49     -2.388196  2 N  s          
    28     -1.669668  1 C  dxx               31     -1.669668  1 C  dyy        
    33     -1.605065  1 C  dzz                5     -0.828780  1 C  s          
     3     -0.657598  1 C  s                 58      0.467762  2 N  pz         
    22     -0.453362  1 C  dxx               25     -0.453362  1 C  dyy        

 Vector    9  Occ=0.000000D+00  E= 7.227744D-02
              MO Center= -1.0D-08, -1.0D-08, -3.0D-01, r^2= 2.2D+00
   Bfn.  Coefficient  Atom+Function         Bfn.  Coefficient  Atom+Function  
  ----- ------------  ---------------      ----- ------------  ---------------
    30      0.303434  1 C  dxz               32      0.303418  1 C  dyz        
    13     -0.230130  1 C  px                14     -0.230118  1 C  py         
     7     -0.227191  1 C  px                 8     -0.227179  1 C  py         
    50      0.227712  2 N  px                51      0.227701  2 N  py         
    53      0.224131  2 N  px                54      0.224120  2 N  py         

 Vector   10  Occ=0.000000D+00  E= 7.227744D-02
              MO Center= -1.0D-09, -1.0D-09, -3.0D-01, r^2= 2.2D+00
   Bfn.  Coefficient  Atom+Function         Bfn.  Coefficient  Atom+Function  
  ----- ------------  ---------------      ----- ------------  ---------------
    30      0.303418  1 C  dxz               32     -0.303434  1 C  dyz        
    13     -0.230118  1 C  px                14      0.230130  1 C  py         
     7     -0.227179  1 C  px                 8      0.227191  1 C  py         
    50      0.227701  2 N  px                51     -0.227712  2 N  py         
    53      0.224120  2 N  px                54     -0.224131  2 N  py         

 Vector   11  Occ=0.000000D+00  E= 1.203591D-01
              MO Center=  1.2D-08,  1.2D-08,  8.0D-01, r^2= 9.6D+00
   Bfn.  Coefficient  Atom+Function         Bfn.  Coefficient  Atom+Function  
  ----- ------------  ---------------      ----- ------------  ---------------
    49      9.442977  2 N  s                 48     -3.142936  2 N  s          
     6     -2.324192  1 C  s                 76     -2.005166  2 N  dzz        
    71     -1.865381  2 N  dxx               74     -1.865381  2 N  dyy        
     5      1.661417  1 C  s                 46     -0.701816  2 N  s          
    65     -0.478025  2 N  dxx               68     -0.478025  2 N  dyy        

 Vector   12  Occ=0.000000D+00  E= 2.279837D-01
              MO Center=  8.2D-10,  8.2D-10, -7.0D-01, r^2= 7.5D+00
   Bfn.  Coefficient  Atom+Function         Bfn.  Coefficient  Atom+Function  
  ----- ------------  ---------------      ----- ------------  ---------------
    48      4.724795  2 N  s                  5     -3.703071  1 C  s          
    49     -3.146002  2 N  s                 15     -2.737851  1 C  pz         
    33     -1.689474  1 C  dzz                4      1.335530  1 C  s          
    71      1.308964  2 N  dxx               74      1.308964  2 N  dyy        
    28      1.249917  1 C  dxx               31      1.249917  1 C  dyy        

 Vector   13  Occ=0.000000D+00  E= 2.385851D-01
              MO Center= -9.1D-09, -9.1D-09,  2.2D-01, r^2= 5.7D+00
   Bfn.  Coefficient  Atom+Function         Bfn.  Coefficient  Atom+Function  
  ----- ------------  ---------------      ----- ------------  ---------------
    13      1.791437  1 C  px                14     -1.791275  1 C  py         
    56     -1.234701  2 N  px                57      1.234590  2 N  py         
    30      1.106413  1 C  dxz               32     -1.106314  1 C  dyz        
    73      1.061692  2 N  dxz               75     -1.061597  2 N  dyz        
    10     -0.266992  1 C  px                11      0.266968  1 C  py         

 Vector   14  Occ=0.000000D+00  E= 2.385851D-01
              MO Center= -7.8D-09, -7.8D-09,  2.2D-01, r^2= 5.7D+00
   Bfn.  Coefficient  Atom+Function         Bfn.  Coefficient  Atom+Function  
  ----- ------------  ---------------      ----- ------------  ---------------
    13      1.791275  1 C  px                14      1.791437  1 C  py         
    56     -1.234590  2 N  px                57     -1.234701  2 N  py         
    30      1.106314  1 C  dxz               32      1.106413  1 C  dyz        
    73      1.061597  2 N  dxz               75      1.061692  2 N  dyz        
    10     -0.266968  1 C  px                11     -0.266992  1 C  py         

 Vector   15  Occ=0.000000D+00  E= 2.602961D-01
              MO Center= -5.6D-09, -5.6D-09, -1.5D+00, r^2= 9.0D+00
   Bfn.  Coefficient  Atom+Function         Bfn.  Coefficient  Atom+Function  
  ----- ------------  ---------------      ----- ------------  ---------------
     6     10.826351  1 C  s                 33     -4.412234  1 C  dzz        
    49     -4.097470  2 N  s                 28     -3.587365  1 C  dxx        
    31     -3.587365  1 C  dyy               58      1.798437  2 N  pz         
     4      1.539379  1 C  s                 71      1.140946  2 N  dxx        
    74      1.140946  2 N  dyy                3     -1.110423  1 C  s          

 Vector   16  Occ=0.000000D+00  E= 2.639140D-01
              MO Center=  8.6D-09,  8.6D-09, -7.1D-01, r^2= 5.5D+00
   Bfn.  Coefficient  Atom+Function         Bfn.  Coefficient  Atom+Function  
  ----- ------------  ---------------      ----- ------------  ---------------
    28      0.941183  1 C  dxx               31     -0.941183  1 C  dyy        
    71     -0.090775  2 N  dxx               74      0.090775  2 N  dyy        
    22     -0.042255  1 C  dxx               25      0.042255  1 C  dyy        
    65      0.033376  2 N  dxx               68     -0.033376  2 N  dyy        
    16      0.028297  1 C  dxx               19     -0.028297  1 C  dyy        

 Vector   17  Occ=0.000000D+00  E= 2.639140D-01
              MO Center=  1.0D-08,  1.0D-08, -7.1D-01, r^2= 5.5D+00
   Bfn.  Coefficient  Atom+Function         Bfn.  Coefficient  Atom+Function  
  ----- ------------  ---------------      ----- ------------  ---------------
    29      1.882365  1 C  dxy               72     -0.181550  2 N  dxy        
    23     -0.084510  1 C  dxy               66      0.066751  2 N  dxy        
    17      0.056595  1 C  dxy        

 Vector   18  Occ=0.000000D+00  E= 2.992730D-01
              MO Center=  5.9D-10,  5.7D-10, -1.4D+00, r^2= 5.1D+00
   Bfn.  Coefficient  Atom+Function         Bfn.  Coefficient  Atom+Function  
  ----- ------------  ---------------      ----- ------------  ---------------
    30      1.886339  1 C  dxz               32     -1.895434  1 C  dyz        
    56     -1.118556  2 N  px                57      1.123949  2 N  py         
    10      0.519401  1 C  px                11     -0.521906  1 C  py         
    13      0.395728  1 C  px                14     -0.397636  1 C  py         
    73      0.323190  2 N  dxz               75     -0.324748  2 N  dyz        

 Vector   19  Occ=0.000000D+00  E= 2.992730D-01
              MO Center= -4.0D-09, -4.0D-09, -1.4D+00, r^2= 5.1D+00
   Bfn.  Coefficient  Atom+Function         Bfn.  Coefficient  Atom+Function  
  ----- ------------  ---------------      ----- ------------  ---------------
    30      1.895434  1 C  dxz               32      1.886339  1 C  dyz        
    56     -1.123949  2 N  px                57     -1.118556  2 N  py         
    10      0.521906  1 C  px                11      0.519401  1 C  py         
    13      0.397636  1 C  px                14      0.395728  1 C  py         
    73      0.324748  2 N  dxz               75      0.323190  2 N  dyz        

 Vector   20  Occ=0.000000D+00  E= 3.454184D-01
              MO Center=  1.8D-09,  1.8D-09,  6.9D-02, r^2= 8.2D+00
   Bfn.  Coefficient  Atom+Function         Bfn.  Coefficient  Atom+Function  
  ----- ------------  ---------------      ----- ------------  ---------------
    48    -28.334994  2 N  s                  5     27.677574  1 C  s          
    15     14.956178  1 C  pz                58      8.461171  2 N  pz         
    76     -4.482463  2 N  dzz               33      3.633493  1 C  dzz        
    28     -2.678113  1 C  dxx               31     -2.678113  1 C  dyy        
    71     -2.358121  2 N  dxx               74     -2.358121  2 N  dyy        

 Vector   21  Occ=0.000000D+00  E= 4.145163D-01
              MO Center=  8.3D-09,  8.3D-09,  7.3D-01, r^2= 7.4D+00
   Bfn.  Coefficient  Atom+Function         Bfn.  Coefficient  Atom+Function  
  ----- ------------  ---------------      ----- ------------  ---------------
    49     12.373815  2 N  s                  5      4.967097  1 C  s          
    76     -4.732580  2 N  dzz               48     -4.238711  2 N  s          
    71     -3.618261  2 N  dxx               74     -3.618261  2 N  dyy        
     6     -3.043798  1 C  s                 58      1.588073  2 N  pz         
    46     -1.126450  2 N  s                 65     -1.025219  2 N  dxx        

 Vector   22  Occ=0.000000D+00  E= 4.812981D-01
              MO Center= -1.7D-09, -1.7D-09,  3.8D-01, r^2= 5.0D+00
   Bfn.  Coefficient  Atom+Function         Bfn.  Coefficient  Atom+Function  
  ----- ------------  ---------------      ----- ------------  ---------------
    71      1.296484  2 N  dxx               74     -1.296484  2 N  dyy        
    28     -0.901367  1 C  dxx               31      0.901367  1 C  dyy        
    65     -0.052963  2 N  dxx               68      0.052963  2 N  dyy        
    59      0.027808  2 N  dxx               62     -0.027808  2 N  dyy        

 Vector   23  Occ=0.000000D+00  E= 4.812981D-01
              MO Center= -1.1D-09, -1.1D-09,  3.8D-01, r^2= 5.0D+00
   Bfn.  Coefficient  Atom+Function         Bfn.  Coefficient  Atom+Function  
  ----- ------------  ---------------      ----- ------------  ---------------
    72      2.592968  2 N  dxy               29     -1.802734  1 C  dxy        
    66     -0.105926  2 N  dxy               60      0.055617  2 N  dxy        
    38      0.046990  1 C  fxyz              23      0.045152  1 C  dxy        

 Vector   24  Occ=0.000000D+00  E= 4.855115D-01
              MO Center=  1.9D-09,  1.9D-09,  8.6D-01, r^2= 4.3D+00
   Bfn.  Coefficient  Atom+Function         Bfn.  Coefficient  Atom+Function  
  ----- ------------  ---------------      ----- ------------  ---------------
    73      1.586523  2 N  dxz               75     -1.586609  2 N  dyz        
    10      0.769162  1 C  px                11     -0.769204  1 C  py         
    30     -0.665320  1 C  dxz               32      0.665356  1 C  dyz        
    53     -0.277801  2 N  px                54      0.277816  2 N  py         
    56      0.242500  2 N  px                57     -0.242513  2 N  py         

 Vector   25  Occ=0.000000D+00  E= 4.855115D-01
              MO Center= -4.3D-09, -4.3D-09,  8.6D-01, r^2= 4.3D+00
   Bfn.  Coefficient  Atom+Function         Bfn.  Coefficient  Atom+Function  
  ----- ------------  ---------------      ----- ------------  ---------------
    73      1.586609  2 N  dxz               75      1.586523  2 N  dyz        
    10      0.769204  1 C  px                11      0.769162  1 C  py         
    30     -0.665356  1 C  dxz               32     -0.665320  1 C  dyz        
    53     -0.277816  2 N  px                54     -0.277801  2 N  py         
    56      0.242513  2 N  px                57      0.242500  2 N  py         

 Vector   26  Occ=0.000000D+00  E= 5.566574D-01
              MO Center=  2.8D-09,  2.8D-09,  3.6D-02, r^2= 5.6D+00
   Bfn.  Coefficient  Atom+Function         Bfn.  Coefficient  Atom+Function  
  ----- ------------  ---------------      ----- ------------  ---------------
     5     19.733336  1 C  s                 48    -18.138562  2 N  s          
    15     13.172180  1 C  pz                49      5.100515  2 N  s          
    71     -4.825021  2 N  dxx               74     -4.825021  2 N  dyy        
    33      4.547282  1 C  dzz                4     -1.823897  1 C  s          
    12     -1.639162  1 C  pz                76     -1.635401  2 N  dzz        

 Vector   27  Occ=0.000000D+00  E= 6.521479D-01
              MO Center=  4.4D-09,  4.4D-09, -1.0D+00, r^2= 6.7D+00
   Bfn.  Coefficient  Atom+Function         Bfn.  Coefficient  Atom+Function  
  ----- ------------  ---------------      ----- ------------  ---------------
     6      9.663166  1 C  s                 48      6.905664  2 N  s          
    33     -6.488006  1 C  dzz               15     -5.200232  1 C  pz         
    28     -4.599343  1 C  dxx               31     -4.599343  1 C  dyy        
     3     -2.988494  1 C  s                 49     -2.704726  2 N  s          
    27     -2.237145  1 C  dzz               71      2.155444  2 N  dxx        

 Vector   28  Occ=0.000000D+00  E= 7.413661D-01
              MO Center=  3.9D-10,  3.8D-10,  3.7D-01, r^2= 4.1D+00
   Bfn.  Coefficient  Atom+Function         Bfn.  Coefficient  Atom+Function  
  ----- ------------  ---------------      ----- ------------  ---------------
    56      3.593310  2 N  px                57     -3.595266  2 N  py         
    13     -2.414063  1 C  px                14      2.415377  1 C  py         
    73     -1.926390  2 N  dxz               75      1.927439  2 N  dyz        
    30     -1.825847  1 C  dxz               32      1.826841  1 C  dyz        
    53     -1.046746  2 N  px                54      1.047316  2 N  py         

 Vector   29  Occ=0.000000D+00  E= 7.413661D-01
              MO Center= -2.8D-08, -2.8D-08,  3.7D-01, r^2= 4.1D+00
   Bfn.  Coefficient  Atom+Function         Bfn.  Coefficient  Atom+Function  
  ----- ------------  ---------------      ----- ------------  ---------------
    56      3.595266  2 N  px                57      3.593310  2 N  py         
    13     -2.415377  1 C  px                14     -2.414063  1 C  py         
    73     -1.927439  2 N  dxz               75     -1.926390  2 N  dyz        
    30     -1.826841  1 C  dxz               32     -1.825847  1 C  dyz        
    53     -1.047316  2 N  px                54     -1.046746  2 N  py         

 Vector   30  Occ=0.000000D+00  E= 7.555520D-01
              MO Center=  2.6D-08,  2.6D-08,  5.0D-01, r^2= 3.9D+00
   Bfn.  Coefficient  Atom+Function         Bfn.  Coefficient  Atom+Function  
  ----- ------------  ---------------      ----- ------------  ---------------
     5     26.318183  1 C  s                 48    -25.876159  2 N  s          
    58     13.046139  2 N  pz                15      9.791754  1 C  pz         
     4      4.875459  1 C  s                 76     -4.832474  2 N  dzz        
    12      4.196020  1 C  pz                28     -2.893710  1 C  dxx        
    31     -2.893710  1 C  dyy                6      2.614278  1 C  s          

 Vector   31  Occ=0.000000D+00  E= 8.160506D-01
              MO Center= -4.3D-09, -4.3D-09, -3.3D-01, r^2= 4.4D+00
   Bfn.  Coefficient  Atom+Function         Bfn.  Coefficient  Atom+Function  
  ----- ------------  ---------------      ----- ------------  ---------------
     5     28.998378  1 C  s                 48    -27.148875  2 N  s          
    15     16.187636  1 C  pz                58      7.640109  2 N  pz         
    49     -3.477042  2 N  s                  4      3.420798  1 C  s          
     6      3.046530  1 C  s                 28     -2.725714  1 C  dxx        
    31     -2.725714  1 C  dyy               47     -2.387992  2 N  s          

 Vector   32  Occ=0.000000D+00  E= 8.966957D-01
              MO Center= -3.9D-10, -3.9D-10, -4.8D-01, r^2= 2.3D+00
   Bfn.  Coefficient  Atom+Function         Bfn.  Coefficient  Atom+Function  
  ----- ------------  ---------------      ----- ------------  ---------------
    23      1.957980  1 C  dxy               29     -0.717216  1 C  dxy        
    72     -0.484228  2 N  dxy               66      0.235643  2 N  dxy        

 Vector   33  Occ=0.000000D+00  E= 8.966957D-01
              MO Center= -6.6D-10, -6.6D-10, -4.8D-01, r^2= 2.3D+00
   Bfn.  Coefficient  Atom+Function         Bfn.  Coefficient  Atom+Function  
  ----- ------------  ---------------      ----- ------------  ---------------
    22      0.978990  1 C  dxx               25     -0.978990  1 C  dyy        
    28     -0.358608  1 C  dxx               31      0.358608  1 C  dyy        
    71     -0.242114  2 N  dxx               74      0.242114  2 N  dyy        
    65      0.117822  2 N  dxx               68     -0.117822  2 N  dyy        

 Vector   34  Occ=0.000000D+00  E= 9.968574D-01
              MO Center=  1.7D-09,  1.7D-09, -9.1D-01, r^2= 2.2D+00
   Bfn.  Coefficient  Atom+Function         Bfn.  Coefficient  Atom+Function  
  ----- ------------  ---------------      ----- ------------  ---------------
    24      1.655143  1 C  dxz               26      1.654594  1 C  dyz        
    53     -0.574598  2 N  px                54     -0.574407  2 N  py         
    73      0.576156  2 N  dxz               75      0.575965  2 N  dyz        
    30     -0.531774  1 C  dxz               32     -0.531598  1 C  dyz        
    13      0.493205  1 C  px                14      0.493041  1 C  py         

 Vector   35  Occ=0.000000D+00  E= 9.968574D-01
              MO Center=  4.4D-10,  4.4D-10, -9.1D-01, r^2= 2.2D+00
   Bfn.  Coefficient  Atom+Function         Bfn.  Coefficient  Atom+Function  
  ----- ------------  ---------------      ----- ------------  ---------------
    24      1.654594  1 C  dxz               26     -1.655143  1 C  dyz        
    53     -0.574407  2 N  px                54      0.574598  2 N  py         
    73      0.575965  2 N  dxz               75     -0.576156  2 N  dyz        
    30     -0.531598  1 C  dxz               32      0.531774  1 C  dyz        
    13      0.493041  1 C  px                14     -0.493205  1 C  py         

 Vector   36  Occ=0.000000D+00  E= 1.037112D+00
              MO Center= -8.0D-10, -8.0D-10,  1.1D+00, r^2= 4.3D+00
   Bfn.  Coefficient  Atom+Function         Bfn.  Coefficient  Atom+Function  
  ----- ------------  ---------------      ----- ------------  ---------------
     5     14.119254  1 C  s                 49     11.957920  2 N  s          
    71     -6.814197  2 N  dxx               74     -6.814197  2 N  dyy        
    76     -6.836456  2 N  dzz               15      6.424395  1 C  pz         
    48     -5.147953  2 N  s                 58      4.072689  2 N  pz         
    46     -3.193702  2 N  s                  6     -2.950401  1 C  s          

 Vector   37  Occ=0.000000D+00  E= 1.267064D+00
              MO Center=  1.2D-09,  1.2D-09, -7.2D-01, r^2= 2.3D+00
   Bfn.  Coefficient  Atom+Function         Bfn.  Coefficient  Atom+Function  
  ----- ------------  ---------------      ----- ------------  ---------------
     5     10.673972  1 C  s                 48     -9.806237  2 N  s          
     4     -7.418471  1 C  s                 47      5.816295  2 N  s          
    58      4.641923  2 N  pz                55     -4.538068  2 N  pz         
    12     -3.408427  1 C  pz                15      3.388891  1 C  pz         
    27     -2.483983  1 C  dzz               76     -2.414216  2 N  dzz        

 Vector   38  Occ=0.000000D+00  E= 1.306560D+00
              MO Center=  2.2D-09,  2.2D-09, -1.7D-01, r^2= 2.5D+00
   Bfn.  Coefficient  Atom+Function         Bfn.  Coefficient  Atom+Function  
  ----- ------------  ---------------      ----- ------------  ---------------
    10      2.565738  1 C  px                11      2.568201  1 C  py         
    73      1.308843  2 N  dxz               75      1.310099  2 N  dyz        
    56     -1.032829  2 N  px                57     -1.033820  2 N  py         
    24      0.995241  1 C  dxz               26      0.996196  1 C  dyz        
     7     -0.765386  1 C  px                 8     -0.766121  1 C  py         

 Vector   39  Occ=0.000000D+00  E= 1.306560D+00
              MO Center= -1.3D-10, -1.3D-10, -1.7D-01, r^2= 2.5D+00
   Bfn.  Coefficient  Atom+Function         Bfn.  Coefficient  Atom+Function  
  ----- ------------  ---------------      ----- ------------  ---------------
    10      2.568201  1 C  px                11     -2.565738  1 C  py         
    73      1.310099  2 N  dxz               75     -1.308843  2 N  dyz        
    56     -1.033820  2 N  px                57      1.032829  2 N  py         
    24      0.996196  1 C  dxz               26     -0.995241  1 C  dyz        
     7     -0.766121  1 C  px                 8      0.765386  1 C  py         

 Vector   40  Occ=0.000000D+00  E= 1.453666D+00
              MO Center= -2.6D-10, -2.6D-10,  3.9D-01, r^2= 1.8D+00
   Bfn.  Coefficient  Atom+Function         Bfn.  Coefficient  Atom+Function  
  ----- ------------  ---------------      ----- ------------  ---------------
    66      2.078730  2 N  dxy               72     -1.292666  2 N  dxy        
    23     -0.824664  1 C  dxy               29      0.828628  1 C  dxy        
    38      0.189016  1 C  fxyz              81     -0.029110  2 N  fxyz       

 Vector   41  Occ=0.000000D+00  E= 1.453666D+00
              MO Center= -2.3D-10, -2.3D-10,  3.9D-01, r^2= 1.8D+00
   Bfn.  Coefficient  Atom+Function         Bfn.  Coefficient  Atom+Function  
  ----- ------------  ---------------      ----- ------------  ---------------
    65      1.039365  2 N  dxx               68     -1.039365  2 N  dyy        
    71     -0.646333  2 N  dxx               74      0.646333  2 N  dyy        
    22     -0.412332  1 C  dxx               25      0.412332  1 C  dyy        
    28      0.414314  1 C  dxx               31     -0.414314  1 C  dyy        
    36      0.094508  1 C  fxxz              41     -0.094508  1 C  fyyz       

 Vector   42  Occ=0.000000D+00  E= 1.491600D+00
              MO Center= -3.5D-09, -3.5D-09, -6.6D-01, r^2= 4.0D+00
   Bfn.  Coefficient  Atom+Function         Bfn.  Coefficient  Atom+Function  
  ----- ------------  ---------------      ----- ------------  ---------------
     3      6.690466  1 C  s                 27      6.702316  1 C  dzz        
     6     -6.122508  1 C  s                 48     -5.985231  2 N  s          
    22      5.742171  1 C  dxx               25      5.742171  1 C  dyy        
     4     -5.067379  1 C  s                  5     -4.306035  1 C  s          
    33      4.316572  1 C  dzz               28      3.607843  1 C  dxx        

 Vector   43  Occ=0.000000D+00  E= 1.621449D+00
              MO Center=  1.6D-10,  1.6D-10,  4.7D-01, r^2= 2.0D+00
   Bfn.  Coefficient  Atom+Function         Bfn.  Coefficient  Atom+Function  
  ----- ------------  ---------------      ----- ------------  ---------------
    67      2.087772  2 N  dxz               69     -2.088440  2 N  dyz        
    24      1.879554  1 C  dxz               26     -1.880156  1 C  dyz        
    56     -1.585693  2 N  px                57      1.586200  2 N  py         
    10      1.304931  1 C  px                11     -1.305348  1 C  py         
    13      0.742991  1 C  px                14     -0.743228  1 C  py         

 Vector   44  Occ=0.000000D+00  E= 1.621449D+00
              MO Center=  3.9D-10,  3.9D-10,  4.7D-01, r^2= 2.0D+00
   Bfn.  Coefficient  Atom+Function         Bfn.  Coefficient  Atom+Function  
  ----- ------------  ---------------      ----- ------------  ---------------
    67      2.088440  2 N  dxz               69      2.087772  2 N  dyz        
    24      1.880156  1 C  dxz               26      1.879554  1 C  dyz        
    56     -1.586200  2 N  px                57     -1.585693  2 N  py         
    10      1.305348  1 C  px                11      1.304931  1 C  py         
    13      0.743228  1 C  px                14      0.742991  1 C  py         

 Vector   45  Occ=0.000000D+00  E= 1.661492D+00
              MO Center=  4.4D-10,  4.4D-10, -3.5D-01, r^2= 3.5D+00
   Bfn.  Coefficient  Atom+Function         Bfn.  Coefficient  Atom+Function  
  ----- ------------  ---------------      ----- ------------  ---------------
    48    -25.422836  2 N  s                  5     24.039116  1 C  s          
     4     18.210551  1 C  s                 12     13.973741  1 C  pz         
    58     13.927194  2 N  pz                47     -8.923205  2 N  s          
    15      6.718714  1 C  pz                55      5.784552  2 N  pz         
     6      3.907667  1 C  s                 28     -3.222130  1 C  dxx        

 Vector   46  Occ=0.000000D+00  E= 1.936194D+00
              MO Center=  3.1D-09,  3.1D-09,  3.4D-01, r^2= 2.2D+00
   Bfn.  Coefficient  Atom+Function         Bfn.  Coefficient  Atom+Function  
  ----- ------------  ---------------      ----- ------------  ---------------
     5     18.816914  1 C  s                 48    -18.285742  2 N  s          
    15     10.531213  1 C  pz                58      5.103937  2 N  pz         
     4      4.445809  1 C  s                 12     -3.277591  1 C  pz         
    27     -2.828356  1 C  dzz               65      2.550649  2 N  dxx        
    68      2.550649  2 N  dyy                3     -2.522298  1 C  s          

 Vector   47  Occ=0.000000D+00  E= 2.056357D+00
              MO Center=  1.4D-10,  1.6D-10,  2.5D-01, r^2= 2.0D+00
   Bfn.  Coefficient  Atom+Function         Bfn.  Coefficient  Atom+Function  
  ----- ------------  ---------------      ----- ------------  ---------------
    54     -3.151289  2 N  py                53      3.109532  2 N  px         
    57      2.258381  2 N  py                56     -2.228456  2 N  px         
    14     -1.297477  1 C  py                13      1.280285  1 C  px         
    32     -1.156736  1 C  dyz               30      1.141409  1 C  dxz        
    26      1.033928  1 C  dyz               24     -1.020228  1 C  dxz        

 Vector   48  Occ=0.000000D+00  E= 2.056357D+00
              MO Center=  1.7D-09,  1.7D-09,  2.5D-01, r^2= 2.0D+00
   Bfn.  Coefficient  Atom+Function         Bfn.  Coefficient  Atom+Function  
  ----- ------------  ---------------      ----- ------------  ---------------
    53      3.151289  2 N  px                54      3.109532  2 N  py         
    56     -2.258381  2 N  px                57     -2.228456  2 N  py         
    13      1.297477  1 C  px                14      1.280285  1 C  py         
    30      1.156736  1 C  dxz               32      1.141409  1 C  dyz        
    24     -1.033928  1 C  dxz               26     -1.020228  1 C  dyz        

 Vector   49  Occ=0.000000D+00  E= 2.313222D+00
              MO Center= -4.7D-09, -4.7D-09,  1.0D+00, r^2= 2.4D+00
   Bfn.  Coefficient  Atom+Function         Bfn.  Coefficient  Atom+Function  
  ----- ------------  ---------------      ----- ------------  ---------------
     5     10.463870  1 C  s                 47      8.900731  2 N  s          
    49      8.559854  2 N  s                 46     -7.178960  2 N  s          
    70     -6.514228  2 N  dzz               65     -5.960084  2 N  dxx        
    68     -5.960084  2 N  dyy               76     -5.805064  2 N  dzz        
    71     -5.586836  2 N  dxx               74     -5.586836  2 N  dyy        

 Vector   50  Occ=0.000000D+00  E= 2.703281D+00
              MO Center=  1.7D-10,  1.7D-10, -6.0D-01, r^2= 8.5D-01
   Bfn.  Coefficient  Atom+Function         Bfn.  Coefficient  Atom+Function  
  ----- ------------  ---------------      ----- ------------  ---------------
    35      1.647064  1 C  fxxy              37      1.646948  1 C  fxyy       
    34     -0.548983  1 C  fxxx              40     -0.549021  1 C  fyyy       
    78      0.188089  2 N  fxxy              80      0.188075  2 N  fxyy       
    77     -0.062692  2 N  fxxx              83     -0.062696  2 N  fyyy       

 Vector   51  Occ=0.000000D+00  E= 2.703281D+00
              MO Center=  1.5D-10,  1.5D-10, -6.0D-01, r^2= 8.5D-01
   Bfn.  Coefficient  Atom+Function         Bfn.  Coefficient  Atom+Function  
  ----- ------------  ---------------      ----- ------------  ---------------
    35      1.646948  1 C  fxxy              37     -1.647064  1 C  fxyy       
    34      0.549021  1 C  fxxx              40     -0.548983  1 C  fyyy       
    78      0.188075  2 N  fxxy              80     -0.188089  2 N  fxyy       
    77      0.062696  2 N  fxxx              83     -0.062692  2 N  fyyy       

 Vector   52  Occ=0.000000D+00  E= 2.765515D+00
              MO Center= -6.5D-10, -6.5D-10, -5.6D-01, r^2= 1.6D+00
   Bfn.  Coefficient  Atom+Function         Bfn.  Coefficient  Atom+Function  
  ----- ------------  ---------------      ----- ------------  ---------------
     4     26.339531  1 C  s                 55      9.164641  2 N  pz         
     3     -8.270925  1 C  s                 47     -6.965799  2 N  s          
     5     -6.557931  1 C  s                 22     -6.274835  1 C  dxx        
    25     -6.274835  1 C  dyy               12      5.629025  1 C  pz         
    48      4.706126  2 N  s                 70     -3.549748  2 N  dzz        

 Vector   53  Occ=0.000000D+00  E= 2.817931D+00
              MO Center= -1.2D-10, -1.2D-10, -3.8D-01, r^2= 1.0D+00
   Bfn.  Coefficient  Atom+Function         Bfn.  Coefficient  Atom+Function  
  ----- ------------  ---------------      ----- ------------  ---------------
    38      3.667181  1 C  fxyz              81     -0.759335  2 N  fxyz       
    66     -0.753810  2 N  dxy               17      0.339713  1 C  dxy        
    72      0.163131  2 N  dxy               23     -0.054358  1 C  dxy        
    60      0.047574  2 N  dxy               29      0.031578  1 C  dxy        

 Vector   54  Occ=0.000000D+00  E= 2.817931D+00
              MO Center= -3.5D-11, -3.5D-11, -3.8D-01, r^2= 1.0D+00
   Bfn.  Coefficient  Atom+Function         Bfn.  Coefficient  Atom+Function  
  ----- ------------  ---------------      ----- ------------  ---------------
    36      1.833590  1 C  fxxz              41     -1.833590  1 C  fyyz       
    79     -0.379668  2 N  fxxz              84      0.379668  2 N  fyyz       
    65     -0.376905  2 N  dxx               68      0.376905  2 N  dyy        
    16      0.169856  1 C  dxx               19     -0.169856  1 C  dyy        
    71      0.081566  2 N  dxx               74     -0.081566  2 N  dyy        

 Vector   55  Occ=0.000000D+00  E= 2.988169D+00
              MO Center= -8.1D-10, -8.1D-10, -7.0D-01, r^2= 1.1D+00
   Bfn.  Coefficient  Atom+Function         Bfn.  Coefficient  Atom+Function  
  ----- ------------  ---------------      ----- ------------  ---------------
    39     -1.179727  1 C  fxzz              42      1.179724  1 C  fyzz       
    24     -1.163358  1 C  dxz               26      1.163355  1 C  dyz        
    18      1.109343  1 C  dxz               20     -1.109339  1 C  dyz        
    10      0.689389  1 C  px                11     -0.689387  1 C  py         
    82      0.595229  2 N  fxzz              85     -0.595227  2 N  fyzz       

 Vector   56  Occ=0.000000D+00  E= 2.988169D+00
              MO Center= -6.1D-09, -6.1D-09, -7.0D-01, r^2= 1.1D+00
   Bfn.  Coefficient  Atom+Function         Bfn.  Coefficient  Atom+Function  
  ----- ------------  ---------------      ----- ------------  ---------------
    39     -1.179724  1 C  fxzz              42     -1.179727  1 C  fyzz       
    24     -1.163355  1 C  dxz               26     -1.163358  1 C  dyz        
    18      1.109339  1 C  dxz               20      1.109343  1 C  dyz        
    10      0.689387  1 C  px                11      0.689389  1 C  py         
    82      0.595227  2 N  fxzz              85      0.595229  2 N  fyzz       

 Vector   57  Occ=0.000000D+00  E= 3.106665D+00
              MO Center= -2.5D-12, -2.4D-12, -6.7D-01, r^2= 8.4D-01
   Bfn.  Coefficient  Atom+Function         Bfn.  Coefficient  Atom+Function  
  ----- ------------  ---------------      ----- ------------  ---------------
    17      2.053294  1 C  dxy               23     -1.471881  1 C  dxy        
    38     -0.977346  1 C  fxyz              29      0.419209  1 C  dxy        
    81     -0.300037  2 N  fxyz              66      0.235854  2 N  dxy        
    60      0.035982  2 N  dxy               72      0.027057  2 N  dxy        

 Vector   58  Occ=0.000000D+00  E= 3.106665D+00
              MO Center=  5.1D-10,  5.1D-10, -6.7D-01, r^2= 8.4D-01
   Bfn.  Coefficient  Atom+Function         Bfn.  Coefficient  Atom+Function  
  ----- ------------  ---------------      ----- ------------  ---------------
    16      1.026647  1 C  dxx               19     -1.026647  1 C  dyy        
    22     -0.735940  1 C  dxx               25      0.735940  1 C  dyy        
    36     -0.488673  1 C  fxxz              41      0.488673  1 C  fyyz       
    28      0.209604  1 C  dxx               31     -0.209604  1 C  dyy        
    79     -0.150018  2 N  fxxz              84      0.150018  2 N  fyyz       

 Vector   59  Occ=0.000000D+00  E= 3.221946D+00
              MO Center=  5.7D-08,  5.7D-08, -3.7D-01, r^2= 1.3D+00
   Bfn.  Coefficient  Atom+Function         Bfn.  Coefficient  Atom+Function  
  ----- ------------  ---------------      ----- ------------  ---------------
    10      2.078860  1 C  px                11      2.078822  1 C  py         
    39     -1.391080  1 C  fxzz              42     -1.391054  1 C  fyzz       
    34     -1.366888  1 C  fxxx              35     -1.366863  1 C  fxxy       
    37     -1.366888  1 C  fxyy              40     -1.366863  1 C  fyyy       
    56     -0.857394  2 N  px                57     -0.857379  2 N  py         

 Vector   60  Occ=0.000000D+00  E= 3.221946D+00
              MO Center=  7.6D-10,  7.6D-10, -3.7D-01, r^2= 1.3D+00
   Bfn.  Coefficient  Atom+Function         Bfn.  Coefficient  Atom+Function  
  ----- ------------  ---------------      ----- ------------  ---------------
    10      2.078822  1 C  px                11     -2.078860  1 C  py         
    39     -1.391054  1 C  fxzz              42      1.391080  1 C  fyzz       
    34     -1.366863  1 C  fxxx              35      1.366888  1 C  fxxy       
    37     -1.366863  1 C  fxyy              40      1.366888  1 C  fyyy       
    56     -0.857379  2 N  px                57      0.857394  2 N  py         

 Vector   61  Occ=0.000000D+00  E= 3.264098D+00
              MO Center= -4.4D-08, -4.4D-08, -3.1D-01, r^2= 2.0D+00
   Bfn.  Coefficient  Atom+Function         Bfn.  Coefficient  Atom+Function  
  ----- ------------  ---------------      ----- ------------  ---------------
     4     24.036812  1 C  s                  3    -19.117239  1 C  s          
    27    -12.334926  1 C  dzz               22     -9.648884  1 C  dxx        
    25     -9.648884  1 C  dyy               12     -6.654282  1 C  pz         
    55     -6.642434  2 N  pz                 5      4.180490  1 C  s          
    70      3.384856  2 N  dzz               48      2.929822  2 N  s          

 Vector   62  Occ=0.000000D+00  E= 3.312294D+00
              MO Center= -5.4D-09, -5.4D-09, -7.0D-01, r^2= 1.8D+00
   Bfn.  Coefficient  Atom+Function         Bfn.  Coefficient  Atom+Function  
  ----- ------------  ---------------      ----- ------------  ---------------
     4     32.372771  1 C  s                  3    -12.738920  1 C  s          
    12      8.112906  1 C  pz                22     -7.627644  1 C  dxx        
    25     -7.627644  1 C  dyy               55      6.815162  2 N  pz         
    27     -5.573504  1 C  dzz               70     -4.043984  2 N  dzz        
    48     -3.785538  2 N  s                 46     -2.962265  2 N  s          

 Vector   63  Occ=0.000000D+00  E= 3.408083D+00
              MO Center=  9.1D-11,  9.1D-11, -4.8D-01, r^2= 1.3D+00
   Bfn.  Coefficient  Atom+Function         Bfn.  Coefficient  Atom+Function  
  ----- ------------  ---------------      ----- ------------  ---------------
    39      2.227745  1 C  fxzz              42     -2.227704  1 C  fyzz       
    24      1.901596  1 C  dxz               26     -1.901560  1 C  dyz        
    67      1.773873  2 N  dxz               69     -1.773840  2 N  dyz        
    10      1.421889  1 C  px                11     -1.421863  1 C  py         
    53     -1.256637  2 N  px                54      1.256613  2 N  py         

 Vector   64  Occ=0.000000D+00  E= 3.408083D+00
              MO Center=  1.4D-09,  1.4D-09, -4.8D-01, r^2= 1.3D+00
   Bfn.  Coefficient  Atom+Function         Bfn.  Coefficient  Atom+Function  
  ----- ------------  ---------------      ----- ------------  ---------------
    39      2.227704  1 C  fxzz              42      2.227745  1 C  fyzz       
    24      1.901560  1 C  dxz               26      1.901596  1 C  dyz        
    67      1.773840  2 N  dxz               69      1.773873  2 N  dyz        
    10      1.421863  1 C  px                11      1.421889  1 C  py         
    53     -1.256613  2 N  px                54     -1.256637  2 N  py         

 Vector   65  Occ=0.000000D+00  E= 3.713855D+00
              MO Center=  7.4D-10,  7.4D-10, -4.5D-01, r^2= 1.7D+00
   Bfn.  Coefficient  Atom+Function         Bfn.  Coefficient  Atom+Function  
  ----- ------------  ---------------      ----- ------------  ---------------
    48     14.471283  2 N  s                  5    -13.134046  1 C  s          
    47     12.425910  2 N  s                 12    -10.209591  1 C  pz         
    58     -8.057625  2 N  pz                 4     -5.827353  1 C  s          
    36      4.042909  1 C  fxxz              41      4.042909  1 C  fyyz       
    27     -3.604599  1 C  dzz               46     -3.427394  2 N  s          

 Vector   66  Occ=0.000000D+00  E= 4.015694D+00
              MO Center=  2.2D-10,  2.2D-10,  5.1D-01, r^2= 6.4D-01
   Bfn.  Coefficient  Atom+Function         Bfn.  Coefficient  Atom+Function  
  ----- ------------  ---------------      ----- ------------  ---------------
    78      1.675712  2 N  fxxy              80     -1.675670  2 N  fxyy       
    77      0.558556  2 N  fxxx              83     -0.558570  2 N  fyyy       
    35     -0.361508  1 C  fxxy              37      0.361499  1 C  fxyy       
    34     -0.120500  1 C  fxxx              40      0.120503  1 C  fyyy       

 Vector   67  Occ=0.000000D+00  E= 4.015694D+00
              MO Center=  2.1D-10,  2.1D-10,  5.1D-01, r^2= 6.4D-01
   Bfn.  Coefficient  Atom+Function         Bfn.  Coefficient  Atom+Function  
  ----- ------------  ---------------      ----- ------------  ---------------
    78      1.675670  2 N  fxxy              80      1.675712  2 N  fxyy       
    77     -0.558570  2 N  fxxx              83     -0.558556  2 N  fyyy       
    35     -0.361499  1 C  fxxy              37     -0.361508  1 C  fxyy       
    34      0.120503  1 C  fxxx              40      0.120500  1 C  fyyy       

 Vector   68  Occ=0.000000D+00  E= 4.172843D+00
              MO Center= -3.0D-10, -3.0D-10,  5.3D-02, r^2= 1.3D+00
   Bfn.  Coefficient  Atom+Function         Bfn.  Coefficient  Atom+Function  
  ----- ------------  ---------------      ----- ------------  ---------------
     4     27.301039  1 C  s                 47    -15.249303  2 N  s          
     3    -10.693935  1 C  s                 48     -9.023277  2 N  s          
     5      7.808206  1 C  s                 22     -6.358252  1 C  dxx        
    25     -6.358252  1 C  dyy               15      5.388724  1 C  pz         
    46      5.188101  2 N  s                 27     -4.148347  1 C  dzz        

 Vector   69  Occ=0.000000D+00  E= 4.518457D+00
              MO Center=  8.3D-11,  8.3D-11,  3.1D-01, r^2= 8.0D-01
   Bfn.  Coefficient  Atom+Function         Bfn.  Coefficient  Atom+Function  
  ----- ------------  ---------------      ----- ------------  ---------------
    81      3.926014  2 N  fxyz              38      2.252600  1 C  fxyz       
    60     -0.730330  2 N  dxy               17      0.345495  1 C  dxy        
    23      0.244701  1 C  dxy               72     -0.209275  2 N  dxy        
    29      0.062451  1 C  dxy        

 Vector   70  Occ=0.000000D+00  E= 4.518457D+00
              MO Center=  8.1D-11,  8.1D-11,  3.1D-01, r^2= 8.0D-01
   Bfn.  Coefficient  Atom+Function         Bfn.  Coefficient  Atom+Function  
  ----- ------------  ---------------      ----- ------------  ---------------
    79      1.963007  2 N  fxxz              84     -1.963007  2 N  fyyz       
    36      1.126300  1 C  fxxz              41     -1.126300  1 C  fyyz       
    59     -0.365165  2 N  dxx               62      0.365165  2 N  dyy        
    16      0.172748  1 C  dxx               19     -0.172748  1 C  dyy        
    22      0.122351  1 C  dxx               25     -0.122351  1 C  dyy        

 Vector   71  Occ=0.000000D+00  E= 4.682021D+00
              MO Center= -1.8D-09, -1.8D-09,  6.2D-01, r^2= 9.4D-01
   Bfn.  Coefficient  Atom+Function         Bfn.  Coefficient  Atom+Function  
  ----- ------------  ---------------      ----- ------------  ---------------
    53      2.388050  2 N  px                54     -2.388311  2 N  py         
    82     -1.613750  2 N  fxzz              85      1.613926  2 N  fyzz       
    56     -1.490288  2 N  px                57      1.490451  2 N  py         
    77     -1.389390  2 N  fxxx              78      1.389541  2 N  fxxy       
    80     -1.389390  2 N  fxyy              83      1.389542  2 N  fyyy       

 Vector   72  Occ=0.000000D+00  E= 4.682021D+00
              MO Center=  2.4D-09,  2.4D-09,  6.2D-01, r^2= 9.4D-01
   Bfn.  Coefficient  Atom+Function         Bfn.  Coefficient  Atom+Function  
  ----- ------------  ---------------      ----- ------------  ---------------
    53      2.388311  2 N  px                54      2.388050  2 N  py         
    82     -1.613926  2 N  fxzz              85     -1.613750  2 N  fyzz       
    56     -1.490451  2 N  px                57     -1.490288  2 N  py         
    77     -1.389542  2 N  fxxx              78     -1.389390  2 N  fxxy       
    80     -1.389541  2 N  fxyy              83     -1.389390  2 N  fyyy       

 Vector   73  Occ=0.000000D+00  E= 4.750887D+00
              MO Center=  2.6D-09,  2.6D-09,  5.8D-01, r^2= 6.2D-01
   Bfn.  Coefficient  Atom+Function         Bfn.  Coefficient  Atom+Function  
  ----- ------------  ---------------      ----- ------------  ---------------
    60      1.966489  2 N  dxy               81      1.634167  2 N  fxyz       
    66     -1.554010  2 N  dxy               38      0.988392  1 C  fxyz       
    72      0.557239  2 N  dxy               23      0.370459  1 C  dxy        
    29     -0.303656  1 C  dxy               17      0.067424  1 C  dxy        

 Vector   74  Occ=0.000000D+00  E= 4.750887D+00
              MO Center=  2.0D-09,  2.0D-09,  5.8D-01, r^2= 6.2D-01
   Bfn.  Coefficient  Atom+Function         Bfn.  Coefficient  Atom+Function  
  ----- ------------  ---------------      ----- ------------  ---------------
    59      0.983245  2 N  dxx               62     -0.983245  2 N  dyy        
    79      0.817083  2 N  fxxz              84     -0.817083  2 N  fyyz       
    65     -0.777005  2 N  dxx               68      0.777005  2 N  dyy        
    36      0.494196  1 C  fxxz              41     -0.494196  1 C  fyyz       
    71      0.278620  2 N  dxx               74     -0.278620  2 N  dyy        

 Vector   75  Occ=0.000000D+00  E= 4.971819D+00
              MO Center=  4.6D-08,  4.6D-08,  3.0D-01, r^2= 1.3D+00
   Bfn.  Coefficient  Atom+Function         Bfn.  Coefficient  Atom+Function  
  ----- ------------  ---------------      ----- ------------  ---------------
    47     37.297431  2 N  s                 46    -22.975456  2 N  s          
    70    -13.336584  2 N  dzz               65    -12.208762  2 N  dxx        
    68    -12.208762  2 N  dyy                4     11.728553  1 C  s          
    48      4.476294  2 N  s                 55      3.859979  2 N  pz         
    49      3.438900  2 N  s                  3     -3.279815  1 C  s          

 Vector   76  Occ=0.000000D+00  E= 4.992360D+00
              MO Center= -5.0D-08, -5.0D-08,  4.9D-01, r^2= 7.6D-01
   Bfn.  Coefficient  Atom+Function         Bfn.  Coefficient  Atom+Function  
  ----- ------------  ---------------      ----- ------------  ---------------
    53      1.926891  2 N  px                54      1.927054  2 N  py         
    67     -1.402728  2 N  dxz               69     -1.402847  2 N  dyz        
    61      1.222285  2 N  dxz               63      1.222389  2 N  dyz        
    77     -1.159332  2 N  fxxx              78     -1.159430  2 N  fxxy       
    80     -1.159332  2 N  fxyy              83     -1.159430  2 N  fyyy       

 Vector   77  Occ=0.000000D+00  E= 4.992360D+00
              MO Center=  3.9D-11,  4.3D-11,  4.9D-01, r^2= 7.6D-01
   Bfn.  Coefficient  Atom+Function         Bfn.  Coefficient  Atom+Function  
  ----- ------------  ---------------      ----- ------------  ---------------
    53      1.927054  2 N  px                54     -1.926891  2 N  py         
    67     -1.402847  2 N  dxz               69      1.402728  2 N  dyz        
    61      1.222389  2 N  dxz               63     -1.222285  2 N  dyz        
    77     -1.159430  2 N  fxxx              78      1.159332  2 N  fxxy       
    80     -1.159430  2 N  fxyy              83      1.159332  2 N  fyyy       

 Vector   78  Occ=0.000000D+00  E= 5.080963D+00
              MO Center=  7.4D-10,  7.4D-10,  7.0D-01, r^2= 1.2D+00
   Bfn.  Coefficient  Atom+Function         Bfn.  Coefficient  Atom+Function  
  ----- ------------  ---------------      ----- ------------  ---------------
    47     17.422319  2 N  s                  5     13.637292  1 C  s          
     4    -12.981795  1 C  s                 48     -8.159352  2 N  s          
    46     -7.571842  2 N  s                 55     -7.484218  2 N  pz         
    15      6.183444  1 C  pz                58      4.834744  2 N  pz         
    65     -4.279850  2 N  dxx               68     -4.279850  2 N  dyy        

 Vector   79  Occ=0.000000D+00  E= 5.640693D+00
              MO Center=  1.9D-10,  1.9D-10,  1.3D-01, r^2= 1.0D+00
   Bfn.  Coefficient  Atom+Function         Bfn.  Coefficient  Atom+Function  
  ----- ------------  ---------------      ----- ------------  ---------------
    82     -2.499257  2 N  fxzz              85     -2.498741  2 N  fyzz       
    39      2.317023  1 C  fxzz              42      2.316545  1 C  fyzz       
    67      1.643634  2 N  dxz               69      1.643295  2 N  dyz        
    18      1.259799  1 C  dxz               20      1.259539  1 C  dyz        
    24      1.189764  1 C  dxz               26      1.189519  1 C  dyz        

 Vector   80  Occ=0.000000D+00  E= 5.640693D+00
              MO Center=  6.5D-12,  6.5D-12,  1.3D-01, r^2= 1.0D+00
   Bfn.  Coefficient  Atom+Function         Bfn.  Coefficient  Atom+Function  
  ----- ------------  ---------------      ----- ------------  ---------------
    82     -2.498741  2 N  fxzz              85      2.499257  2 N  fyzz       
    39      2.316545  1 C  fxzz              42     -2.317023  1 C  fyzz       
    67      1.643295  2 N  dxz               69     -1.643634  2 N  dyz        
    18      1.259539  1 C  dxz               20     -1.259799  1 C  dyz        
    24      1.189519  1 C  dxz               26     -1.189764  1 C  dyz        

 Vector   81  Occ=0.000000D+00  E= 6.224866D+00
              MO Center=  2.4D-10,  2.4D-10,  3.1D-01, r^2= 1.2D+00
   Bfn.  Coefficient  Atom+Function         Bfn.  Coefficient  Atom+Function  
  ----- ------------  ---------------      ----- ------------  ---------------
     4     15.146109  1 C  s                 55     13.085292  2 N  pz         
    70     -7.067366  2 N  dzz               12      6.825413  1 C  pz         
    79     -4.140653  2 N  fxxz              84     -4.140653  2 N  fyyz       
    47     -3.537834  2 N  s                  5     -2.667084  1 C  s          
    48     -2.273616  2 N  s                 46     -2.096070  2 N  s          

 Vector   82  Occ=0.000000D+00  E= 6.664748D+00
              MO Center=  6.4D-11,  6.4D-11, -2.1D-02, r^2= 1.1D+00
   Bfn.  Coefficient  Atom+Function         Bfn.  Coefficient  Atom+Function  
  ----- ------------  ---------------      ----- ------------  ---------------
    47     21.759336  2 N  s                  4    -17.200783  1 C  s          
    46     -9.536398  2 N  s                  3      6.943652  1 C  s          
    65     -5.380323  2 N  dxx               68     -5.380323  2 N  dyy        
    22      4.921675  1 C  dxx               25      4.921675  1 C  dyy        
     5     -4.856920  1 C  s                 27      4.212468  1 C  dzz        

 Vector   83  Occ=0.000000D+00  E= 8.060645D+00
              MO Center=  9.8D-11,  9.8D-11, -6.7D-01, r^2= 7.8D-01
   Bfn.  Coefficient  Atom+Function         Bfn.  Coefficient  Atom+Function  
  ----- ------------  ---------------      ----- ------------  ---------------
     4     22.892173  1 C  s                 27     -7.316749  1 C  dzz        
    22     -7.113981  1 C  dxx               25     -7.113981  1 C  dyy        
     3     -6.113011  1 C  s                 47      5.403664  2 N  s          
    21     -3.749759  1 C  dzz               16     -3.100374  1 C  dxx        
    19     -3.100374  1 C  dyy               46     -2.149771  2 N  s          

 Vector   84  Occ=0.000000D+00  E= 1.204665D+01
              MO Center=  1.0D-10,  1.0D-10,  5.5D-01, r^2= 5.0D-01
   Bfn.  Coefficient  Atom+Function         Bfn.  Coefficient  Atom+Function  
  ----- ------------  ---------------      ----- ------------  ---------------
    47     22.113509  2 N  s                 70     -7.407767  2 N  dzz        
    65     -7.169919  2 N  dxx               68     -7.169919  2 N  dyy        
    46     -5.283718  2 N  s                 59     -3.324117  2 N  dxx        
    62     -3.324117  2 N  dyy               64     -3.289015  2 N  dzz        
    49      2.290999  2 N  s                 45     -1.762614  2 N  s          

 Vector   85  Occ=0.000000D+00  E= 3.464137D+01
              MO Center=  1.7D-12,  1.7D-12, -6.3D-01, r^2= 1.6D-01
   Bfn.  Coefficient  Atom+Function         Bfn.  Coefficient  Atom+Function  
  ----- ------------  ---------------      ----- ------------  ---------------
     3      5.238712  1 C  s                  2     -3.823878  1 C  s          
     4      2.868332  1 C  s                 21     -2.670708  1 C  dzz        
    16     -2.589718  1 C  dxx               19     -2.589718  1 C  dyy        
    27     -1.708827  1 C  dzz                1      1.663862  1 C  s          
    22     -1.659367  1 C  dxx               25     -1.659367  1 C  dyy        

 Vector   86  Occ=0.000000D+00  E= 5.162627D+01
              MO Center= -9.4D-13, -9.4D-13,  5.4D-01, r^2= 1.1D-01
   Bfn.  Coefficient  Atom+Function         Bfn.  Coefficient  Atom+Function  
  ----- ------------  ---------------      ----- ------------  ---------------
    46      7.514865  2 N  s                 45     -4.041591  2 N  s          
    59     -2.697891  2 N  dxx               62     -2.697891  2 N  dyy        
    64     -2.690649  2 N  dzz               44      1.691758  2 N  s          
    48      1.385784  2 N  s                 49      1.172987  2 N  s          
    70     -0.998429  2 N  dzz               65     -0.892893  2 N  dxx        


                     DFT Final Beta Molecular Orbital Analysis
                     -----------------------------------------

 Vector    1  Occ=1.000000D+00  E=-1.424541D+01
              MO Center= -2.6D-10, -2.6D-10,  5.4D-01, r^2= 2.0D-02
   Bfn.  Coefficient  Atom+Function         Bfn.  Coefficient  Atom+Function  
  ----- ------------  ---------------      ----- ------------  ---------------
    45      0.619505  2 N  s                 44      0.449410  2 N  s          
    47     -0.110802  2 N  s                 46      0.099340  2 N  s          

 Vector    2  Occ=1.000000D+00  E=-1.019449D+01
              MO Center= -2.2D-10, -2.2D-10, -6.3D-01, r^2= 2.8D-02
   Bfn.  Coefficient  Atom+Function         Bfn.  Coefficient  Atom+Function  
  ----- ------------  ---------------      ----- ------------  ---------------
     2      0.599868  1 C  s                  1      0.468168  1 C  s          
     4     -0.112291  1 C  s                  3      0.103093  1 C  s          

 Vector    3  Occ=1.000000D+00  E=-1.057234D+00
              MO Center=  4.2D-09,  4.2D-09,  9.4D-02, r^2= 5.4D-01
   Bfn.  Coefficient  Atom+Function         Bfn.  Coefficient  Atom+Function  
  ----- ------------  ---------------      ----- ------------  ---------------
    46      0.323077  2 N  s                  3      0.251344  1 C  s          
    47      0.231334  2 N  s                 45     -0.192374  2 N  s          
     9      0.172759  1 C  pz                 4      0.160749  1 C  s          
    52     -0.146063  2 N  pz                 2     -0.142277  1 C  s          
    12      0.093130  1 C  pz                44     -0.088292  2 N  s          

 Vector    4  Occ=1.000000D+00  E=-5.414573D-01
              MO Center=  7.2D-09,  7.2D-09,  4.6D-01, r^2= 1.2D+00
   Bfn.  Coefficient  Atom+Function         Bfn.  Coefficient  Atom+Function  
  ----- ------------  ---------------      ----- ------------  ---------------
    47      0.369479  2 N  s                  4     -0.315246  1 C  s          
    52      0.294234  2 N  pz                 3     -0.274013  1 C  s          
    46      0.234458  2 N  s                 48      0.224432  2 N  s          
    55      0.178774  2 N  pz                 2      0.145547  1 C  s          
    45     -0.142113  2 N  s                 49      0.094530  2 N  s          

 Vector    5  Occ=1.000000D+00  E=-4.971756D-01
              MO Center= -3.8D-10, -3.8D-10,  8.2D-02, r^2= 1.0D+00
   Bfn.  Coefficient  Atom+Function         Bfn.  Coefficient  Atom+Function  
  ----- ------------  ---------------      ----- ------------  ---------------
    50      0.252412  2 N  px                51     -0.252421  2 N  py         
    53      0.206853  2 N  px                54     -0.206861  2 N  py         
     7      0.203934  1 C  px                 8     -0.203941  1 C  py         
    10      0.156830  1 C  px                11     -0.156836  1 C  py         
    56      0.105302  2 N  px                57     -0.105305  2 N  py         

 Vector    6  Occ=1.000000D+00  E=-4.971756D-01
              MO Center= -6.3D-09, -6.3D-09,  8.2D-02, r^2= 1.0D+00
   Bfn.  Coefficient  Atom+Function         Bfn.  Coefficient  Atom+Function  
  ----- ------------  ---------------      ----- ------------  ---------------
    50      0.252421  2 N  px                51      0.252412  2 N  py         
    53      0.206861  2 N  px                54      0.206853  2 N  py         
     7      0.203941  1 C  px                 8      0.203934  1 C  py         
    10      0.156836  1 C  px                11      0.156830  1 C  py         
    56      0.105305  2 N  px                57      0.105302  2 N  py         

 Vector    7  Occ=0.000000D+00  E=-1.478968D-01
              MO Center= -7.5D-10, -7.5D-10, -7.2D-01, r^2= 1.6D+00
   Bfn.  Coefficient  Atom+Function         Bfn.  Coefficient  Atom+Function  
  ----- ------------  ---------------      ----- ------------  ---------------
     9     -0.342005  1 C  pz                 6      0.334150  1 C  s          
    12     -0.290639  1 C  pz                52      0.254139  2 N  pz         
     4      0.214247  1 C  s                 15     -0.175913  1 C  pz         
    48      0.123055  2 N  s                  5      0.117236  1 C  s          
    47      0.113924  2 N  s                 55      0.113842  2 N  pz         

 Vector    8  Occ=0.000000D+00  E= 6.803503D-02
              MO Center= -4.1D-09, -4.1D-09, -1.5D+00, r^2= 1.1D+01
   Bfn.  Coefficient  Atom+Function         Bfn.  Coefficient  Atom+Function  
  ----- ------------  ---------------      ----- ------------  ---------------
     6      7.763462  1 C  s                 49     -2.501816  2 N  s          
    28     -1.796424  1 C  dxx               31     -1.796424  1 C  dyy        
    33     -1.730024  1 C  dzz                5     -0.809177  1 C  s          
     3     -0.703469  1 C  s                 58      0.534541  2 N  pz         
    15      0.490601  1 C  pz                22     -0.492617  1 C  dxx        

 Vector    9  Occ=0.000000D+00  E= 9.818610D-02
              MO Center= -2.1D-08, -2.1D-08, -4.1D-01, r^2= 2.3D+00
   Bfn.  Coefficient  Atom+Function         Bfn.  Coefficient  Atom+Function  
  ----- ------------  ---------------      ----- ------------  ---------------
    13      0.305513  1 C  px                14      0.305514  1 C  py         
    30     -0.303706  1 C  dxz               32     -0.303707  1 C  dyz        
     7      0.234296  1 C  px                 8      0.234297  1 C  py         
    53     -0.213682  2 N  px                54     -0.213683  2 N  py         
    50     -0.210438  2 N  px                51     -0.210439  2 N  py         

 Vector   10  Occ=0.000000D+00  E= 9.818610D-02
              MO Center= -2.2D-10, -2.2D-10, -4.1D-01, r^2= 2.3D+00
   Bfn.  Coefficient  Atom+Function         Bfn.  Coefficient  Atom+Function  
  ----- ------------  ---------------      ----- ------------  ---------------
    13      0.305514  1 C  px                14     -0.305513  1 C  py         
    30     -0.303707  1 C  dxz               32      0.303706  1 C  dyz        
     7      0.234297  1 C  px                 8     -0.234296  1 C  py         
    53     -0.213683  2 N  px                54      0.213682  2 N  py         
    50     -0.210439  2 N  px                51      0.210438  2 N  py         

 Vector   11  Occ=0.000000D+00  E= 1.220706D-01
              MO Center=  1.9D-08,  1.9D-08,  8.3D-01, r^2= 9.7D+00
   Bfn.  Coefficient  Atom+Function         Bfn.  Coefficient  Atom+Function  
  ----- ------------  ---------------      ----- ------------  ---------------
    49      9.612431  2 N  s                 48     -3.261930  2 N  s          
     6     -2.452281  1 C  s                 76     -2.045162  2 N  dzz        
    71     -1.911452  2 N  dxx               74     -1.911452  2 N  dyy        
     5      1.767668  1 C  s                 46     -0.709871  2 N  s          
    65     -0.487391  2 N  dxx               68     -0.487391  2 N  dyy        

 Vector   12  Occ=0.000000D+00  E= 2.351171D-01
              MO Center=  5.7D-09,  5.7D-09, -7.4D-01, r^2= 7.5D+00
   Bfn.  Coefficient  Atom+Function         Bfn.  Coefficient  Atom+Function  
  ----- ------------  ---------------      ----- ------------  ---------------
    48      4.621232  2 N  s                  5     -3.655512  1 C  s          
    15     -2.781181  1 C  pz                49     -2.758867  2 N  s          
    33     -1.630469  1 C  dzz                4      1.403295  1 C  s          
    28      1.343039  1 C  dxx               31      1.343039  1 C  dyy        
    71      1.236155  2 N  dxx               74      1.236155  2 N  dyy        

 Vector   13  Occ=0.000000D+00  E= 2.421426D-01
              MO Center= -6.8D-09, -6.8D-09,  3.4D-01, r^2= 5.7D+00
   Bfn.  Coefficient  Atom+Function         Bfn.  Coefficient  Atom+Function  
  ----- ------------  ---------------      ----- ------------  ---------------
    13      1.804691  1 C  px                14     -1.804661  1 C  py         
    56     -1.307506  2 N  px                57      1.307485  2 N  py         
    30      1.253463  1 C  dxz               32     -1.253442  1 C  dyz        
    73      1.100264  2 N  dxz               75     -1.100245  2 N  dyz        
    10     -0.237211  1 C  px                11      0.237208  1 C  py         

 Vector   14  Occ=0.000000D+00  E= 2.421426D-01
              MO Center= -1.2D-08, -1.2D-08,  3.4D-01, r^2= 5.7D+00
   Bfn.  Coefficient  Atom+Function         Bfn.  Coefficient  Atom+Function  
  ----- ------------  ---------------      ----- ------------  ---------------
    13      1.804661  1 C  px                14      1.804691  1 C  py         
    56     -1.307485  2 N  px                57     -1.307506  2 N  py         
    30      1.253442  1 C  dxz               32      1.253463  1 C  dyz        
    73      1.100245  2 N  dxz               75      1.100264  2 N  dyz        
    10     -0.237208  1 C  px                11     -0.237211  1 C  py         

 Vector   15  Occ=0.000000D+00  E= 2.668846D-01
              MO Center=  5.4D-09,  5.4D-09, -7.0D-01, r^2= 5.5D+00
   Bfn.  Coefficient  Atom+Function         Bfn.  Coefficient  Atom+Function  
  ----- ------------  ---------------      ----- ------------  ---------------
    28      0.939485  1 C  dxx               31     -0.939485  1 C  dyy        
[...]
     1   0 1 0     -0.000000      0.000000     -0.000000      0.000000
     1   0 0 1     -0.643514      0.539124     -1.182639     -0.000000

     2   2 0 0     -8.158505     -4.441737     -3.716768      0.000000
     2   1 1 0     -0.000000     -0.000000     -0.000000      0.000000
     2   1 0 1      0.000000      0.000000      0.000000      0.000000
     2   0 2 0     -8.158505     -4.441737     -3.716768      0.000000
     2   0 1 1      0.000000      0.000000      0.000000      0.000000
     2   0 0 2     -7.669518    -14.114137     -9.319357     15.763976

  int_init: cando_txs set to always be  F
                                NWChem TDDFT Module
                                -------------------


            General Information
            -------------------
           No. of orbitals :     172
            Alpha orbitals :      86
             Beta orbitals :      86
        Alpha frozen cores :       0
         Beta frozen cores :       0
     Alpha frozen virtuals :       0
      Beta frozen virtuals :       0
         Spin multiplicity :       2
    Number of AO functions :      86
        Use of symmetry is : off
      Symmetry adaption is : off
         Schwarz screening :  0.10D-07

              XC Information
              --------------
              Hartree-Fock (Exact) Exchange   1.00          
              LC-wPBE(h)Exchange Functional   1.00          
     Perdew 1991 LDA Correlation Functional   1.00 local    
    PerdewBurkeErnz. Correlation Functional   1.00 non-local
           Alpha           :  0.00
           Beta            :  1.00
           Gamma           :  0.36

             TDDFT Information
             -----------------
          Calculation type : Tamm-Dancoff TDDFT
         Wavefunction type : Unrestricted
          No. of electrons :      13
           Alpha electrons :       7
            Beta electrons :       6
              No. of roots :      10
          Max subspacesize :    6000
            Max iterations :     100
               Target root :       1
           Target symmetry : none
      Symmetry restriction : off
                 Algorithm : Optimal
        Davidson threshold :  0.10D-03

            Memory Information
            ------------------
          Available GA space size is       47185905208 doubles
          Available MA space size is         419532796 doubles
          Length of a trial vector is          553     480
          Algorithm : Incore multiple tensor contraction
          Estimated peak GA usage is          21015426 doubles
          Estimated peak MA usage is             51000 doubles

   10 smallest eigenvalue differences (eV) 
--------------------------------------------------------
  No. Spin  Occ  Vir  Irrep   E(Occ)    E(Vir)   E(Diff)
--------------------------------------------------------
    1    2    6    7 a        -0.497    -0.148     9.504
    2    2    5    7 a        -0.497    -0.148     9.504
    3    2    4    7 a        -0.541    -0.148    10.709
    4    2    6    8 a        -0.497     0.068    15.380
    5    2    5    8 a        -0.497     0.068    15.380
    6    1    7    8 a        -0.507     0.060    15.426
    7    1    6    8 a        -0.507     0.060    15.426
    8    1    7    9 a        -0.507     0.072    15.750
    9    1    7   10 a        -0.507     0.072    15.750
   10    1    6    9 a        -0.507     0.072    15.750
--------------------------------------------------------

  Entering Davidson iterations
  Unrestricted

  Iter   NTrls   NConv    DeltaV     DeltaE      Time   
  ----  ------  ------  ---------  ---------  --------- 
    1     10       0     0.39E+00   0.10+100       12.1
    2     20       0     0.12E+00   0.13E+00       12.8
    3     30       0     0.17E+00   0.86E-01       13.2
    4     40       0     0.96E-01   0.30E-01       13.3
    5     50       0     0.17E+00   0.33E-01       13.0
    6     60       3     0.70E-01   0.18E-01       13.2
    7     67       5     0.14E-01   0.20E-02        9.8
    8     72       6     0.39E-02   0.92E-04        7.6
    9     76       8     0.68E-03   0.50E-05        6.6
   10     78       9     0.11E-03   0.14E-06        4.2
   11     79      10     0.74E-04   0.45E-08        3.0
  ----  ------  ------  ---------  ---------  --------- 
  Convergence criterion met

  Ground state a         -92.660408118119 a.u.
  <S2> =   0.7666

  ----------------------------------------------------------------------------
  Root   1         a              0.053895992 a.u.                1.4666 eV 
  <S2> =   0.7756
  ----------------------------------------------------------------------------
     Transition Moments    X  0.22524   Y -0.22524   Z -0.00000
     Transition Moments   XX -0.00000  XY -0.00000  XZ -0.21582
     Transition Moments   YY  0.00000  YZ  0.21582  ZZ  0.00000
     Dipole Oscillator Strength                    0.0036457874
     Electric Quadrupole                           0.0000000001
     Magnetic Dipole                               0.0000000205
     Total Oscillator Strength                     0.0036458080

     Occ.    4 alpha a   ---  Virt.   10 alpha a       -0.06469
     Occ.    5 beta  a   ---  Virt.    7 beta  a       -0.99204
     Occ.    5 beta  a   ---  Virt.    8 beta  a        0.07932
  ----------------------------------------------------------------------------
  Root   2         a              0.053895992 a.u.                1.4666 eV 
  <S2> =   0.7756
  ----------------------------------------------------------------------------
     Transition Moments    X  0.22524   Y  0.22524   Z -0.00000
     Transition Moments   XX -0.00000  XY -0.00000  XZ -0.21582
     Transition Moments   YY -0.00000  YZ -0.21582  ZZ  0.00000
     Dipole Oscillator Strength                    0.0036456223
     Electric Quadrupole                           0.0000000001
     Magnetic Dipole                               0.0000000205
     Total Oscillator Strength                     0.0036456428

     Occ.    4 alpha a   ---  Virt.    9 alpha a       -0.06470
     Occ.    6 beta  a   ---  Virt.    7 beta  a       -0.99204
     Occ.    6 beta  a   ---  Virt.    8 beta  a        0.07932
  ----------------------------------------------------------------------------
  Root   3         a              0.129358848 a.u.                3.5200 eV 
  <S2> =   0.8274
  ----------------------------------------------------------------------------
     Transition Moments    X  0.00000   Y  0.00000   Z -0.62067
     Transition Moments   XX  0.03021  XY -0.00000  XZ -0.00000
     Transition Moments   YY  0.03021  YZ -0.00000  ZZ  0.15410
     Dipole Oscillator Strength                    0.0332220680
     Electric Quadrupole                           0.0000000001
     Magnetic Dipole                               0.0000000000
     Total Oscillator Strength                     0.0332220680

     Occ.    6 alpha a   ---  Virt.    9 alpha a       -0.20075
     Occ.    7 alpha a   ---  Virt.   10 alpha a       -0.20075
     Occ.    4 beta  a   ---  Virt.    7 beta  a        0.94815
     Occ.    4 beta  a   ---  Virt.    8 beta  a       -0.06482
  ----------------------------------------------------------------------------
  Root   4         a              0.238644559 a.u.                6.4939 eV 
  <S2> =   2.6890
  ----------------------------------------------------------------------------
     Transition Moments    X -0.00000   Y -0.00000   Z -0.14210
     Transition Moments   XX -0.02567  XY -0.00000  XZ  0.00000
     Transition Moments   YY -0.02567  YZ  0.00000  ZZ  0.12110
     Dipole Oscillator Strength                    0.0032125248
     Electric Quadrupole                           0.0000000005
     Magnetic Dipole                               0.0000000000
     Total Oscillator Strength                     0.0032125253

     Occ.    6 alpha a   ---  Virt.    9 alpha a        0.46328
     Occ.    6 alpha a   ---  Virt.   19 alpha a       -0.08768
     Occ.    7 alpha a   ---  Virt.   10 alpha a        0.46328
     Occ.    7 alpha a   ---  Virt.   18 alpha a       -0.08768
     Occ.    4 beta  a   ---  Virt.    7 beta  a        0.16168
     Occ.    5 beta  a   ---  Virt.   10 beta  a        0.49729
     Occ.    5 beta  a   ---  Virt.   18 beta  a        0.11119
     Occ.    6 beta  a   ---  Virt.    9 beta  a        0.49729
     Occ.    6 beta  a   ---  Virt.   19 beta  a        0.11119
  ----------------------------------------------------------------------------
  Root   5         a              0.256433155 a.u.                6.9779 eV 
  <S2> =   2.6980
  ----------------------------------------------------------------------------
     Transition Moments    X  0.00000   Y -0.00000   Z  0.00000
     Transition Moments   XX -0.02546  XY  0.00000  XZ -0.00000
     Transition Moments   YY  0.02546  YZ  0.00000  ZZ -0.00000
     Dipole Oscillator Strength                    0.0000000000
     Electric Quadrupole                           0.0000000001
     Magnetic Dipole                               0.0000000000
     Total Oscillator Strength                     0.0000000001

     Occ.    6 alpha a   ---  Virt.   10 alpha a       -0.56099
     Occ.    6 alpha a   ---  Virt.   18 alpha a        0.09365
     Occ.    7 alpha a   ---  Virt.    9 alpha a       -0.56099
     Occ.    7 alpha a   ---  Virt.   19 alpha a        0.09365
     Occ.    5 beta  a   ---  Virt.    9 beta  a       -0.40699
     Occ.    5 beta  a   ---  Virt.   19 beta  a       -0.08617
     Occ.    6 beta  a   ---  Virt.   10 beta  a       -0.40699
     Occ.    6 beta  a   ---  Virt.   18 beta  a       -0.08617
  ----------------------------------------------------------------------------
  Root   6         a              0.256433898 a.u.                6.9779 eV 
  <S2> =   2.6980
  ----------------------------------------------------------------------------
     Transition Moments    X  0.00000   Y  0.00000   Z -0.00000
     Transition Moments   XX -0.00000  XY -0.02545  XZ -0.00000
     Transition Moments   YY  0.00000  YZ -0.00000  ZZ  0.00000
     Dipole Oscillator Strength                    0.0000000000
     Electric Quadrupole                           0.0000000001
     Magnetic Dipole                               0.0000000000
     Total Oscillator Strength                     0.0000000001

     Occ.    6 alpha a   ---  Virt.    9 alpha a       -0.56099
     Occ.    6 alpha a   ---  Virt.   19 alpha a        0.09365
     Occ.    7 alpha a   ---  Virt.   10 alpha a        0.56099
     Occ.    7 alpha a   ---  Virt.   18 alpha a       -0.09365
     Occ.    5 beta  a   ---  Virt.   10 beta  a        0.40698
     Occ.    5 beta  a   ---  Virt.   18 beta  a        0.08617
     Occ.    6 beta  a   ---  Virt.    9 beta  a       -0.40698
     Occ.    6 beta  a   ---  Virt.   19 beta  a       -0.08617
  ----------------------------------------------------------------------------
  Root   7         a              0.285502370 a.u.                7.7689 eV 
  <S2> =   1.7527
  ----------------------------------------------------------------------------
     Transition Moments    X  0.00000   Y -0.00000   Z  0.00000
     Transition Moments   XX -0.00000  XY  0.00000  XZ -0.00000
     Transition Moments   YY  0.00000  YZ  0.00000  ZZ -0.00000
     Dipole Oscillator Strength                    0.0000000000
     Electric Quadrupole                           0.0000000000
     Magnetic Dipole                               0.0000000000
     Total Oscillator Strength                     0.0000000000

     Occ.    6 alpha a   ---  Virt.   10 alpha a       -0.69974
     Occ.    6 alpha a   ---  Virt.   18 alpha a        0.09588
     Occ.    7 alpha a   ---  Virt.    9 alpha a        0.69974
     Occ.    7 alpha a   ---  Virt.   19 alpha a       -0.09588
  ----------------------------------------------------------------------------
  Root   8         a              0.304937620 a.u.                8.2978 eV 
  <S2> =   1.4144
  ----------------------------------------------------------------------------
     Transition Moments    X -0.05109   Y  0.05109   Z  0.00000
     Transition Moments   XX  0.00000  XY  0.00000  XZ  0.75827
     Transition Moments   YY -0.00000  YZ -0.75827  ZZ  0.00000
     Dipole Oscillator Strength                    0.0010614192
     Electric Quadrupole                           0.0000001736
     Magnetic Dipole                               0.0000022730
     Total Oscillator Strength                     0.0010638658

     Occ.    4 alpha a   ---  Virt.   10 alpha a        0.08209
     Occ.    5 alpha a   ---  Virt.   10 alpha a       -0.94780
     Occ.    5 alpha a   ---  Virt.   18 alpha a        0.13432
     Occ.    4 beta  a   ---  Virt.   10 beta  a       -0.25416
     Occ.    4 beta  a   ---  Virt.   18 beta  a       -0.05950
  ----------------------------------------------------------------------------
  Root   9         a              0.312156192 a.u.                8.4942 eV 
  <S2> =   0.8069
  ----------------------------------------------------------------------------
     Transition Moments    X  0.00000   Y -0.00000   Z -0.00000
     Transition Moments   XX  0.22574  XY -0.00000  XZ -0.00000
     Transition Moments   YY -0.22574  YZ -0.00000  ZZ  0.00000
     Dipole Oscillator Strength                    0.0000000000
     Electric Quadrupole                           0.0000000083
     Magnetic Dipole                               0.0000000000
     Total Oscillator Strength                     0.0000000083

     Occ.    6 alpha a   ---  Virt.   10 alpha a        0.41565
     Occ.    7 alpha a   ---  Virt.    9 alpha a        0.41565
     Occ.    5 beta  a   ---  Virt.    9 beta  a       -0.56297
     Occ.    5 beta  a   ---  Virt.   19 beta  a       -0.08503
     Occ.    6 beta  a   ---  Virt.   10 beta  a       -0.56297
     Occ.    6 beta  a   ---  Virt.   18 beta  a       -0.08503
  ----------------------------------------------------------------------------
  Root  10         a              0.312157401 a.u.                8.4942 eV 
  <S2> =   0.8069
  ----------------------------------------------------------------------------
     Transition Moments    X -0.00000   Y -0.00000   Z  0.00000
     Transition Moments   XX -0.00000  XY  0.22575  XZ  0.00000
     Transition Moments   YY  0.00000  YZ  0.00000  ZZ -0.00000
     Dipole Oscillator Strength                    0.0000000000
     Electric Quadrupole                           0.0000000083
     Magnetic Dipole                               0.0000000000
     Total Oscillator Strength                     0.0000000083

     Occ.    6 alpha a   ---  Virt.    9 alpha a        0.41564
     Occ.    7 alpha a   ---  Virt.   10 alpha a       -0.41564
     Occ.    5 beta  a   ---  Virt.   10 beta  a        0.56298
     Occ.    5 beta  a   ---  Virt.   18 beta  a        0.08503
     Occ.    6 beta  a   ---  Virt.    9 beta  a       -0.56298
     Occ.    6 beta  a   ---  Virt.   19 beta  a       -0.08503

              Target root =      1
          Target symmetry = none
      Ground state energy =    -92.660408118119
        Excitation energy =      0.053895991509
     Excited state energy =    -92.606512126610

  stored tddft:energy   -92.606512126610156     

 Task  times  cpu:      101.8s     wall:      117.1s


                                NWChem Input Module
                                -------------------


 Summary of allocated global arrays
-----------------------------------
  No active global arrays


MA_summarize_allocated_blocks: starting scan ...
heap block 'gridpts', handle 126, address 0x1379a528:
	type of elements:		double precision
	number of elements:		104753703
	address of client space:	0x1379a580
	index for client space:		12685319
	total number of bytes:		838029720
MA_summarize_allocated_blocks: scan completed: 1 heap block, 0 stack blocks
MA usage statistics:

	allocation statistics:
					      heap	     stack
					      ----	     -----
	current number of blocks	         1	         0
	maximum number of blocks	        18	        53
	current total bytes		 838029720	         0
	maximum total bytes		 838331504	  22515128
	maximum total K-bytes		    838332	     22516
	maximum total M-bytes		       839	        23


                                     CITATION
                                     --------
                Please cite the following reference when publishing
                           results obtained with NWChem:

          E. Apra, E. J. Bylaska, W. A. de Jong, N. Govind, K. Kowalski,
       T. P. Straatsma, M. Valiev, H. J. J. van Dam, Y. Alexeev, J. Anchell,
       V. Anisimov, F. W. Aquino, R. Atta-Fynn, J. Autschbach, N. P. Bauman,
     J. C. Becca, D. E. Bernholdt, K. Bhaskaran-Nair, S. Bogatko, P. Borowski,
         J. Boschen, J. Brabec, A. Bruner, E. Cauet, Y. Chen, G. N. Chuev,
      C. J. Cramer, J. Daily, M. J. O. Deegan, T. H. Dunning Jr., M. Dupuis,
   K. G. Dyall, G. I. Fann, S. A. Fischer, A. Fonari, H. Fruchtl, L. Gagliardi,
      J. Garza, N. Gawande, S. Ghosh, K. Glaesemann, A. W. Gotz, J. Hammond,
       V. Helms, E. D. Hermes, K. Hirao, S. Hirata, M. Jacquelin, L. Jensen,
   B. G. Johnson, H. Jonsson, R. A. Kendall, M. Klemm, R. Kobayashi, V. Konkov,
      S. Krishnamoorthy, M. Krishnan, Z. Lin, R. D. Lins, R. J. Littlefield,
      A. J. Logsdail, K. Lopata, W. Ma, A. V. Marenich, J. Martin del Campo,
   D. Mejia-Rodriguez, J. E. Moore, J. M. Mullin, T. Nakajima, D. R. Nascimento,
    J. A. Nichols, P. J. Nichols, J. Nieplocha, A. Otero-de-la-Roza, B. Palmer,
    A. Panyala, T. Pirojsirikul, B. Peng, R. Peverati, J. Pittner, L. Pollack,
   R. M. Richard, P. Sadayappan, G. C. Schatz, W. A. Shelton, D. W. Silverstein,
   D. M. A. Smith, T. A. Soares, D. Song, M. Swart, H. L. Taylor, G. S. Thomas,
            V. Tipparaju, D. G. Truhlar, K. Tsemekhman, T. Van Voorhis,
      A. Vazquez-Mayagoitia, P. Verma, O. Villa, A. Vishnu, K. D. Vogiatzis,
        D. Wang, J. H. Weare, M. J. Williamson, T. L. Windus, K. Wolinski,
        A. T. Wong, Q. Wu, C. Yang, Q. Yu, M. Zacharias, Z. Zhang, Y. Zhao,
                                and R. J. Harrison
                        "NWChem: Past, present, and future
                         J. Chem. Phys. 152, 184102 (2020)
                               doi:10.1063/5.0004997

                                      AUTHORS
                                      -------
  E. Apra, E. J. Bylaska, N. Govind, K. Kowalski, M. Valiev, D. Mejia-Rodriguez,
       A. Kunitsa, N. P. Bauman, A. Panyala, W. A. de Jong, T. P. Straatsma,
   H. J. J. van Dam, D. Wang, T. L. Windus, J. Hammond, J. Autschbach, A. Woods,
    K. Bhaskaran-Nair, J. Brabec, K. Lopata, S. A. Fischer, S. Krishnamoorthy,
     M. Jacquelin, W. Ma, M. Klemm, O. Villa, Y. Chen, V. Anisimov, F. Aquino,
     S. Hirata, M. T. Hackler, E. Hermes, L. Jensen, J. E. Moore, J. C. Becca,
      V. Konjkov, T. Risthaus, M. Malagoli, A. Marenich, A. Otero-de-la-Roza,
        J. Mullin, P. Nichols, R. Peverati, J. Pittner, Y. Zhao, P.-D. Fan,
        A. Fonari, M. J. Williamson, R. J. Harrison, J. R. Rehr, M. Dupuis,
     D. Silverstein, D. M. A. Smith, J. Nieplocha, V. Tipparaju, M. Krishnan,
     B. E. Van Kuiken, A. Vazquez-Mayagoitia, M. Swart, Q. Wu, T. Van Voorhis,
     A. A. Auer, M. Nooijen, L. D. Crosby, E. Brown, G. Cisneros, G. I. Fann,
   H. Fruchtl, J. Garza, K. Hirao, R. A. Kendall, J. A. Nichols, K. Tsemekhman,
    K. Wolinski, J. Anchell, D. E. Bernholdt, P. Borowski, T. Clark, D. Clerc,
   H. Dachsel, M. J. O. Deegan, K. Dyall, D. Elwood, E. Glendening, M. Gutowski,
   A. C. Hess, J. Jaffe, B. G. Johnson, J. Ju, R. Kobayashi, R. Kutteh, Z. Lin,
   R. Littlefield, X. Long, B. Meng, T. Nakajima, S. Niu, L. Pollack, M. Rosing,
   K. Glaesemann, G. Sandrone, M. Stave, H. Taylor, G. Thomas, J. H. van Lenthe,
                               A. T. Wong, Z. Zhang.

 Total times  cpu:      101.8s     wall:      117.6s
