 argument  1 = /home/aditisingh4812/nw_chem/nwchem-run/nwchem-run/tddft/open/gdd_open/geom-MOL/nco.nw
                                         
                                         


             Northwest Computational Chemistry Package (NWChem) 7.2.3
             --------------------------------------------------------


                    Environmental Molecular Sciences Laboratory
                       Pacific Northwest National Laboratory
                                Richland, WA 99352

                              Copyright (c) 1994-2022
                       Pacific Northwest National Laboratory
                            Battelle Memorial Institute

             NWChem is an open-source computational chemistry package
                        distributed under the terms of the
                      Educational Community License (ECL) 2.0
             A copy of the license is included with this distribution
                              in the LICENSE.TXT file

                                  ACKNOWLEDGMENT
                                  --------------

            This software and its documentation were developed at the
            EMSL at Pacific Northwest National Laboratory, a multiprogram
            national laboratory, operated for the U.S. Department of Energy
            by Battelle under Contract Number DE-AC05-76RL01830. Support
            for this work was provided by the Department of Energy Office
            of Biological and Environmental Research, Office of Basic
            Energy Sciences, and the Office of Advanced Scientific Computing.


           Job information
           ---------------

    hostname        = p17
    program         = /home/aditisingh4812/nw_chem/nwchem-7.2.3-release.revision-d690e065-srconly.2024-08-27/nwchem-7.2.3/bin/LINUX64/nwchem
    date            = Thu May  8 12:10:33 2025

    compiled        = Mon_Apr_07_18:51:54_2025
    source          = /home/aditisingh4812/nw_chem/nwchem-7.2.3-release.revision-d690e065-srconly.2024-08-27/nwchem-7.2.3
    nwchem branch   = 7.2.3
    nwchem revision = d690e065
    ga revision     = 5.8.0
    use scalapack   = F
    input           = /home/aditisingh4812/nw_chem/nwchem-run/nwchem-run/tddft/open/gdd_open/geom-MOL/nco.nw
    prefix          = nco.
    data base       = ./nco.db
    status          = startup
    nproc           =       72
    time left       =     -1s



           Memory information
           ------------------

    heap     =  262143998 doubles =   2000.0 Mbytes
    stack    =  262143995 doubles =   2000.0 Mbytes
    global   =  655360000 doubles =   5000.0 Mbytes (distinct from heap & stack)
    total    = 1179647993 doubles =   9000.0 Mbytes
    verify   = yes
    hardfail = no 


           Directory information
           ---------------------

  0 permanent = .
  0 scratch   = .




                                NWChem Input Module
                                -------------------



 Scaling coordinates for geometry "geometry" by  1.889725989
 (inverse scale =  0.529177249)



                             Geometry "geometry" -> ""
                             -------------------------

 Output coordinates in angstroms (scale by  1.889725989 to convert to a.u.)

  No.       Tag          Charge          X              Y              Z
 ---- ---------------- ---------- -------------- -------------- --------------
    1 N                    7.0000     0.00000000     0.00000000    -1.26678200
    2 C                    6.0000     0.00000000     0.00000000    -0.03853300
    3 O                    8.0000     0.00000000     0.00000000     1.13733400

      Atomic Mass 
      ----------- 

      N                 14.003070
      C                 12.000000
      O                 15.994910


 Effective nuclear repulsion energy (a.u.)      52.0230708966

            Nuclear Dipole moment (a.u.) 
            ----------------------------
        X                 Y               Z
 ---------------- ---------------- ----------------
     0.0000000000     0.0000000000     0.0000000000


            XYZ format geometry
            -------------------
     3
 geometry
 N                     0.00000000     0.00000000    -1.26678200
 C                     0.00000000     0.00000000    -0.03853300
 O                     0.00000000     0.00000000     1.13733400

 ==============================================================================
                                internuclear distances
 ------------------------------------------------------------------------------
       center one      |      center two      | atomic units |  angstroms
 ------------------------------------------------------------------------------
    2 C                |   1 N                |     2.32105  |     1.22825
    3 O                |   2 C                |     2.22207  |     1.17587
 ------------------------------------------------------------------------------
                         number of included internuclear distances:          2
 ==============================================================================



 ==============================================================================
                                 internuclear angles
 ------------------------------------------------------------------------------
        center 1       |       center 2       |       center 3       |  degrees
 ------------------------------------------------------------------------------
    1 N                |   2 C                |   3 O                |   180.00
 ------------------------------------------------------------------------------
                            number of included internuclear angles:          1
 ==============================================================================





 Summary of "ao basis" -> "" (cartesian)
 ------------------------------------------------------------------------------
       Tag                 Description            Shells   Functions and Types
 ---------------- ------------------------------  ------  ---------------------
 *                         def2-TZVPD                 on all atoms 


  pbe96 is a nonlocal functional; adding pw91lda local functional. 

                                 NWChem DFT Module
                                 -----------------


                      Basis "ao basis" -> "ao basis" (cartesian)
                      -----
  N (Nitrogen)
  ------------
            Exponent  Coefficients 
       -------------- ---------------------------------------------------------
  1 S  1.97308006E+04  0.000219
  1 S  2.95789587E+03  0.001696
  1 S  6.73221336E+02  0.008795
  1 S  1.90682495E+02  0.035359
  1 S  6.22954419E+01  0.110958
  1 S  2.26541612E+01  0.249830

  2 S  8.97914774E+00  0.406239
  2 S  3.68630024E+00  0.243382

  3 S  8.46600768E-01  1.000000

  4 S  3.36471338E-01  1.000000

  5 S  1.36476537E-01  1.000000

  6 S  6.84416058E-02  1.000000

  7 P  4.92003805E+01  0.005555
  7 P  1.13467905E+01  0.038052
  7 P  3.42739724E+00  0.149537
  7 P  1.17855251E+00  0.349493

  8 P  4.16422050E-01  1.000000

  9 P  1.42608260E-01  1.000000

 10 D  1.65400000E+00  1.000000

 11 D  4.69000000E-01  1.000000

 12 D  1.28296421E-01  1.000000

 13 F  1.09300000E+00  1.000000

  C (Carbon)
  ----------
            Exponent  Coefficients 
       -------------- ---------------------------------------------------------
  1 S  1.35753497E+04  0.000222
  1 S  2.03523337E+03  0.001723
  1 S  4.63225624E+02  0.008926
  1 S  1.31200196E+02  0.035728
  1 S  4.28530159E+01  0.110763
  1 S  1.55841858E+01  0.242956

  2 S  6.20671385E+00  0.414403
  2 S  2.57648965E+00  0.237450

  3 S  5.76963394E-01  1.000000

  4 S  2.29728314E-01  1.000000

  5 S  9.51644400E-02  1.000000

  6 S  4.84754014E-02  1.000000

  7 P  3.46972322E+01  0.005333
  7 P  7.95826228E+00  0.035864
  7 P  2.37808269E+00  0.142159
  7 P  8.14332082E-01  0.342705

  8 P  2.88875473E-01  1.000000

  9 P  1.00568237E-01  1.000000

 10 D  1.09700000E+00  1.000000

 11 D  3.18000000E-01  1.000000

 12 D  9.09853364E-02  1.000000

 13 F  7.61000000E-01  1.000000

  O (Oxygen)
  ----------
            Exponent  Coefficients 
       -------------- ---------------------------------------------------------
  1 S  2.70323826E+04  0.000217
  1 S  4.05238714E+03  0.001684
  1 S  9.22327227E+02  0.008740
  1 S  2.61240710E+02  0.035240
  1 S  8.53546414E+01  0.111535
  1 S  3.10350352E+01  0.255890

  2 S  1.22608607E+01  0.397687
  2 S  4.99870760E+00  0.246278

  3 S  1.17031082E+00  1.000000

  4 S  4.64747410E-01  1.000000

  5 S  1.85045364E-01  1.000000

  6 S  7.02880263E-02  1.000000

  7 P  6.32749548E+01  0.006069
  7 P  1.46270494E+01  0.041913
  7 P  4.45012235E+00  0.161538
  7 P  1.52757996E+00  0.357070

  8 P  5.29351179E-01  1.000000

  9 P  1.74784213E-01  1.000000

 10 P  5.11127457E-02  1.000000

 11 D  2.31400000E+00  1.000000

 12 D  6.45000000E-01  1.000000

 13 D  1.46964774E-01  1.000000

 14 F  1.42800000E+00  1.000000



 Summary of "ao basis" -> "ao basis" (cartesian)
 ------------------------------------------------------------------------------
       Tag                 Description            Shells   Functions and Types
 ---------------- ------------------------------  ------  ---------------------
 N                         def2-TZVPD               13       43   6s3p3d1f
 C                         def2-TZVPD               13       43   6s3p3d1f
 O                         def2-TZVPD               14       46   6s4p3d1f




 Summary of "ao basis" -> "ao basis" (cartesian)
 ------------------------------------------------------------------------------
       Tag                 Description            Shells   Functions and Types
 ---------------- ------------------------------  ------  ---------------------
 N                         def2-TZVPD               13       43   6s3p3d1f
 C                         def2-TZVPD               13       43   6s3p3d1f
 O                         def2-TZVPD               14       46   6s4p3d1f


  int_init: cando_txs set to always be  F
  Caching 1-el integrals 

            General Information
            -------------------
          SCF calculation type: DFT
          Wavefunction type:  spin polarized.
          No. of atoms     :     3
          No. of electrons :    21
           Alpha electrons :    11
            Beta electrons :    10
          Charge           :     0
          Spin multiplicity:     2
          Use of symmetry is: off; symmetry adaption is: off
          Maximum number of iterations:  50
          AO basis - number of functions:   132
                     number of shells:    40
          Convergence on energy requested:  1.00D-06
          Convergence on density requested:  1.00D-05
          Convergence on gradient requested:  5.00D-04

              XC Information
              --------------
                     Hartree-Fock (Exact) Exchange  1.000          
                     LC-wPBE(h)Exchange Functional  1.000          
            Perdew 1991 LDA Correlation Functional  1.000 local    
           PerdewBurkeErnz. Correlation Functional  1.000 non-local

           Range-Separation Parameters        
           ---------------------------
           Alpha           :  0.00
           Beta            :  1.00
           Gamma           :  0.34
           Short-Range HF  :     F

             Grid Information
             ----------------
          Grid used for XC integration:  xfine     
          Radial quadrature: Mura-Knowles        
          Angular quadrature: Lebedev. 
          Tag              B.-S. Rad. Rad. Pts. Rad. Cut. Ang. Pts.
          ---              ---------- --------- --------- ---------
          N                   0.65      100          11.0      1454
          C                   0.70      100          10.0      1454
          O                   0.60      100          11.0      1454
          Grid pruning is: on 
          Number of quadrature shells:   300
          Spatial weights used:  Erf1

          Convergence Information
          -----------------------
          Convergence aids based upon iterative change in 
          total energy or number of iterations. 
          Levelshifting, if invoked, occurs when the 
          HOMO/LUMO gap drops below (HL_TOL):  1.00D-02
          DIIS, if invoked, will attempt to extrapolate 
          using up to (NFOCK): 10 stored Fock matrices.

                    Damping( 0%)  Levelshifting(0.5)       DIIS
                  --------------- ------------------- ---------------
          dE  on:    start            ASAP                start   
          dE off:    2 iters         50 iters            50 iters 


      Screening Tolerance Information
      -------------------------------
          Density screening/tol_rho:  1.00D-10
          AO Gaussian exp screening on grid/accAOfunc:  14
          CD Gaussian exp screening on grid/accCDfunc:  20
          XC Gaussian exp screening on grid/accXCfunc:  20
          Schwarz screening/accCoul:  1.00D-08

  
  CAM type calculations without CDFIT are
  only available with the direct option.
  Forcing Direct SCF
  

      Superposition of Atomic Density Guess
      -------------------------------------

 Sum of atomic energies:        -166.76731637

      Non-variational initial energy
      ------------------------------

 Total energy =    -167.655726
 1-e energy   =    -330.046174
 2-e energy   =     110.367377
 HOMO         =      -0.348335
 LUMO         =       0.044483

  WARNING: movecs_in_org=atomic not equal to movecs_in=./nco.movecs
   Time after variat. SCF:      0.7
   Time prior to 1st pass:      0.7

 Grid_pts file          = ./nco.gridpts.00
 Record size in doubles =  12289        No. of grid_pts per rec  =   3070
 Max. records in memory =      4        Max. recs in file   =  14072920

 Grid integrated density:      20.999998881101
 Requested integration accuracy:   0.10E-07

           Memory utilization after 1st SCF pass: 
           Heap Space remaining (MW):      157.34           157343462
          Stack Space remaining (MW):      262.14           262142796

   convergence    iter        energy       DeltaE   RMS-Dens  Diis-err    time
 ---------------- ----- ----------------- --------- --------- ---------  ------
 d= 0,ls=0.0,diis     1   -167.8439081345 -2.20D+02  4.15D-03  3.27D-01     1.6
                                                     4.07D-03  3.24D-01
 Grid integrated density:      20.999998975787
 Requested integration accuracy:   0.10E-07
 d= 0,ls=0.0,diis     2   -167.8629330574 -1.90D-02  1.62D-03  2.18D-01     2.6
                                                     1.64D-03  1.94D-01
 d= 0,ls=0.0,diis     3   -167.9216955760 -5.88D-02  5.09D-04  3.35D-02     3.5
                                                     5.39D-04  3.73D-02
 d= 0,ls=0.0,diis     4   -167.9321330013 -1.04D-02  2.09D-04  3.31D-03     4.5
                                                     2.05D-04  3.18D-03
 d= 0,ls=0.0,diis     5   -167.9333069418 -1.17D-03  7.92D-05  4.52D-04     5.4
                                                     7.16D-05  2.65D-04
  Resetting Diis
 d= 0,ls=0.0,diis     6   -167.9335021009 -1.95D-04  5.38D-05  2.72D-05     6.4
                                                     6.70D-05  3.28D-05
 d= 0,ls=0.0,diis     7   -167.9335605771 -5.85D-05  1.17D-05  3.93D-06     7.4
                                                     1.46D-05  3.25D-06
 d= 0,ls=0.0,diis     8   -167.9335677396 -7.16D-06  7.10D-06  1.02D-06     8.3
                                                     1.14D-05  2.41D-06
 d= 0,ls=0.0,diis     9   -167.9335708481 -3.11D-06  1.26D-05  2.68D-06     9.3
                                                     1.68D-05  1.63D-06
 d= 0,ls=0.0,diis    10   -167.9335737949 -2.95D-06  1.89D-06  5.54D-08    10.2
                                                     1.99D-06  4.05D-08
 d= 0,ls=0.0,diis    11   -167.9335738763 -8.14D-08  1.17D-06  2.47D-08    11.1
                                                     1.24D-06  1.70D-08


         Total DFT energy =     -167.933573876324
      One electron energy =     -330.799411072559
           Coulomb energy =      131.496264113811
    Exchange-Corr. energy =      -20.653497814225
 Nuclear repulsion energy =       52.023070896649

 Numeric. integr. density =       20.999999995104

     Total iterative time =     10.4s



                    DFT Final Alpha Molecular Orbital Analysis
                    ------------------------------------------

 Vector    1  Occ=1.000000D+00  E=-1.905724D+01
              MO Center=  8.5D-13,  8.1D-13,  1.1D+00, r^2= 1.5D-02
   Bfn.  Coefficient  Atom+Function         Bfn.  Coefficient  Atom+Function  
  ----- ------------  ---------------      ----- ------------  ---------------
    88      0.632819  3 O  s                 87      0.436010  3 O  s          
    90     -0.105674  3 O  s                 89      0.094263  3 O  s          

 Vector    2  Occ=1.000000D+00  E=-1.426005D+01
              MO Center= -1.0D-12, -1.1D-12, -1.3D+00, r^2= 2.0D-02
   Bfn.  Coefficient  Atom+Function         Bfn.  Coefficient  Atom+Function  
  ----- ------------  ---------------      ----- ------------  ---------------
     2      0.619107  1 N  s                  1      0.449252  1 N  s          
     4     -0.117706  1 N  s                  3      0.099598  1 N  s          

 Vector    3  Occ=1.000000D+00  E=-1.024087D+01
              MO Center= -2.5D-12, -2.7D-12, -3.8D-02, r^2= 2.8D-02
   Bfn.  Coefficient  Atom+Function         Bfn.  Coefficient  Atom+Function  
  ----- ------------  ---------------      ----- ------------  ---------------
    45      0.599318  2 C  s                 44      0.467970  2 C  s          
    46      0.103424  2 C  s                 47     -0.100440  2 C  s          

 Vector    4  Occ=1.000000D+00  E=-1.266602D+00
              MO Center=  8.9D-11,  9.2D-11,  7.7D-01, r^2= 4.9D-01
   Bfn.  Coefficient  Atom+Function         Bfn.  Coefficient  Atom+Function  
  ----- ------------  ---------------      ----- ------------  ---------------
    89      0.330048  3 O  s                 90      0.315753  3 O  s          
    46      0.216224  2 C  s                 88     -0.209559  3 O  s          
    52      0.144870  2 C  pz                95     -0.131891  3 O  pz         
    45     -0.119157  2 C  s                 91      0.105930  3 O  s          
    55      0.102846  2 C  pz                87     -0.091537  3 O  s          

 Vector    5  Occ=1.000000D+00  E=-1.080035D+00
              MO Center=  5.3D-11,  6.3D-11, -7.7D-01, r^2= 6.2D-01
   Bfn.  Coefficient  Atom+Function         Bfn.  Coefficient  Atom+Function  
  ----- ------------  ---------------      ----- ------------  ---------------
     3      0.332082  1 N  s                 52     -0.217792  2 C  pz         
     4      0.200896  1 N  s                  2     -0.191328  1 N  s          
    46      0.187497  2 C  s                 47      0.179113  2 C  s          
     9      0.148513  1 N  pz                55     -0.134063  2 C  pz         
    45     -0.108338  2 C  s                  1     -0.087578  1 N  s          

 Vector    6  Occ=1.000000D+00  E=-6.785424D-01
              MO Center=  8.4D-10,  4.5D-10,  1.1D+00, r^2= 8.9D-01
   Bfn.  Coefficient  Atom+Function         Bfn.  Coefficient  Atom+Function  
  ----- ------------  ---------------      ----- ------------  ---------------
    95      0.383216  3 O  pz                47     -0.312388  2 C  s          
    90      0.299238  3 O  s                 91      0.262524  3 O  s          
    98      0.221910  3 O  pz                89      0.199625  3 O  s          
    46     -0.193961  2 C  s                 52     -0.166264  2 C  pz         
    55     -0.130710  2 C  pz                88     -0.119584  3 O  s          

 Vector    7  Occ=1.000000D+00  E=-6.418196D-01
              MO Center= -1.1D-09, -1.2D-10,  3.6D-01, r^2= 1.3D+00
   Bfn.  Coefficient  Atom+Function         Bfn.  Coefficient  Atom+Function  
  ----- ------------  ---------------      ----- ------------  ---------------
    93      0.338342  3 O  px                96      0.271053  3 O  px         
    50      0.265293  2 C  px                53      0.183186  2 C  px         
     7      0.174681  1 N  px                99      0.146990  3 O  px         
    10      0.143705  1 N  px                13      0.071936  1 N  px         
    94      0.066509  3 O  py                82      0.053702  2 C  fxzz       

 Vector    8  Occ=1.000000D+00  E=-6.190909D-01
              MO Center=  1.7D-10, -3.4D-10,  4.1D-01, r^2= 1.3D+00
   Bfn.  Coefficient  Atom+Function         Bfn.  Coefficient  Atom+Function  
  ----- ------------  ---------------      ----- ------------  ---------------
    94      0.338037  3 O  py                51      0.275168  2 C  py         
    97      0.271026  3 O  py                54      0.192291  2 C  py         
     8      0.154148  1 N  py               100      0.150061  3 O  py         
    11      0.124821  1 N  py                93     -0.066449  3 O  px         
    14      0.065894  1 N  py                50     -0.054090  2 C  px         

 Vector    9  Occ=1.000000D+00  E=-5.534959D-01
              MO Center= -7.0D-10, -4.8D-10, -1.3D+00, r^2= 1.0D+00
   Bfn.  Coefficient  Atom+Function         Bfn.  Coefficient  Atom+Function  
  ----- ------------  ---------------      ----- ------------  ---------------
     4      0.417584  1 N  s                  9     -0.352148  1 N  pz         
    47     -0.314557  2 C  s                  5      0.255600  1 N  s          
     3      0.216240  1 N  s                 52      0.206057  2 C  pz         
    55      0.192707  2 C  pz                12     -0.165477  1 N  pz         
     2     -0.131099  1 N  s                 46     -0.126195  2 C  s          

 Vector   10  Occ=1.000000D+00  E=-4.816555D-01
              MO Center=  8.7D-10,  2.0D-10, -3.7D-01, r^2= 1.9D+00
   Bfn.  Coefficient  Atom+Function         Bfn.  Coefficient  Atom+Function  
  ----- ------------  ---------------      ----- ------------  ---------------
     7      0.361866  1 N  px                10      0.312989  1 N  px         
    93     -0.298501  3 O  px                96     -0.251423  3 O  px         
    13      0.162742  1 N  px                99     -0.142747  3 O  px         
    67     -0.094304  2 C  dxz               50      0.087508  2 C  px         
    53      0.073591  2 C  px                 8      0.071133  1 N  py         

 Vector   11  Occ=1.000000D+00  E=-4.403530D-01
              MO Center= -5.9D-11,  3.7D-10, -3.8D-01, r^2= 1.9D+00
   Bfn.  Coefficient  Atom+Function         Bfn.  Coefficient  Atom+Function  
  ----- ------------  ---------------      ----- ------------  ---------------
     8      0.351385  1 N  py                11      0.301377  1 N  py         
    94     -0.292916  3 O  py                97     -0.248533  3 O  py         
    14      0.160781  1 N  py               100     -0.147394  3 O  py         
    51      0.111122  2 C  py                69     -0.101121  2 C  dyz        
    54      0.095535  2 C  py                 7     -0.069072  1 N  px         

 Vector   12  Occ=0.000000D+00  E= 4.340835D-02
              MO Center= -1.6D-09, -1.8D-09,  5.8D-01, r^2= 1.1D+01
   Bfn.  Coefficient  Atom+Function         Bfn.  Coefficient  Atom+Function  
  ----- ------------  ---------------      ----- ------------  ---------------
    49      7.406041  2 C  s                 92     -4.678599  3 O  s          
     6     -2.240983  1 N  s                  5      1.221253  1 N  s          
    58      1.171219  2 C  pz               104      1.050622  3 O  pz         
    74     -0.852362  2 C  dyy               71     -0.833452  2 C  dxx        
    76     -0.819012  2 C  dzz               47      0.744267  2 C  s          

 Vector   13  Occ=0.000000D+00  E= 9.317469D-02
              MO Center= -1.2D-09, -6.0D-10,  1.7D+00, r^2= 1.3D+01
   Bfn.  Coefficient  Atom+Function         Bfn.  Coefficient  Atom+Function  
  ----- ------------  ---------------      ----- ------------  ---------------
    92     12.245333  3 O  s                 48     -7.308170  2 C  s          
     6      6.162407  1 N  s                 76     -5.935672  2 C  dzz        
    58     -4.540991  2 C  pz               104     -3.677164  3 O  pz         
    91      2.624888  3 O  s                  5     -2.591789  1 N  s          
    15     -2.186278  1 N  pz                74     -2.051619  2 C  dyy        

 Vector   14  Occ=0.000000D+00  E= 1.014965D-01
              MO Center=  4.7D-09,  7.1D-10,  5.2D-01, r^2= 6.5D+00
   Bfn.  Coefficient  Atom+Function         Bfn.  Coefficient  Atom+Function  
  ----- ------------  ---------------      ----- ------------  ---------------
   102      1.262106  3 O  px                73     -0.993604  2 C  dxz        
    56     -0.985747  2 C  px                99      0.539007  3 O  px         
    50     -0.345270  2 C  px               119     -0.330628  3 O  dxz        
    53     -0.314125  2 C  px               103      0.248095  3 O  py         
    75     -0.195315  2 C  dyz               57     -0.193770  2 C  py         

 Vector   15  Occ=0.000000D+00  E= 1.027227D-01
              MO Center= -2.5D-09, -1.5D-10,  5.1D-01, r^2= 6.5D+00
   Bfn.  Coefficient  Atom+Function         Bfn.  Coefficient  Atom+Function  
  ----- ------------  ---------------      ----- ------------  ---------------
   102      1.198421  3 O  px                73     -0.859943  2 C  dxz        
   119     -0.473368  3 O  dxz               56     -0.434721  2 C  px         
    13     -0.431351  1 N  px                53      0.240497  2 C  px         
    50      0.235091  2 C  px               103      0.235575  3 O  py         
    96     -0.224789  3 O  px                 7     -0.216413  1 N  px         

 Vector   16  Occ=0.000000D+00  E= 1.045792D-01
              MO Center= -4.3D-10,  2.4D-09,  1.2D+00, r^2= 1.0D+01
   Bfn.  Coefficient  Atom+Function         Bfn.  Coefficient  Atom+Function  
  ----- ------------  ---------------      ----- ------------  ---------------
   103      1.742784  3 O  py                75     -1.304443  2 C  dyz        
    57     -1.081102  2 C  py               121     -0.557879  3 O  dyz        
   100      0.516038  3 O  py               102     -0.342582  3 O  px         
    14     -0.269747  1 N  py                73      0.256416  2 C  dxz        
    56      0.212514  2 C  px                69     -0.161583  2 C  dyz        

 Vector   17  Occ=0.000000D+00  E= 1.230079D-01
              MO Center=  6.2D-10, -2.5D-09, -2.2D-01, r^2= 2.1D+00
   Bfn.  Coefficient  Atom+Function         Bfn.  Coefficient  Atom+Function  
  ----- ------------  ---------------      ----- ------------  ---------------
    51      0.389972  2 C  py                54      0.364522  2 C  py         
    14     -0.303070  1 N  py                 8     -0.277379  1 N  py         
    11     -0.263920  1 N  py                94     -0.244055  3 O  py         
   100     -0.227903  3 O  py                97     -0.217268  3 O  py         
    32      0.208850  1 N  dyz              103      0.208908  3 O  py         

 Vector   18  Occ=0.000000D+00  E= 1.463897D-01
              MO Center= -2.7D-09, -1.5D-09, -1.1D+00, r^2= 1.3D+01
   Bfn.  Coefficient  Atom+Function         Bfn.  Coefficient  Atom+Function  
  ----- ------------  ---------------      ----- ------------  ---------------
     6     11.405115  1 N  s                 49     -4.666345  2 C  s          
    48      3.119269  2 C  s                  5     -2.542026  1 N  s          
    33     -2.126931  1 N  dzz               31     -1.839090  1 N  dyy        
    28     -1.827899  1 N  dxx              104      1.714201  3 O  pz         
    91     -1.259984  3 O  s                101      1.096542  3 O  pz         

 Vector   19  Occ=0.000000D+00  E= 1.796222D-01
              MO Center=  4.4D-09,  4.6D-09,  1.7D-01, r^2= 9.7D+00
   Bfn.  Coefficient  Atom+Function         Bfn.  Coefficient  Atom+Function  
  ----- ------------  ---------------      ----- ------------  ---------------
    49     12.869080  2 C  s                 92    -10.056489  3 O  s          
     6     -5.626320  1 N  s                 71     -2.073829  2 C  dxx        
    74     -2.036836  2 C  dyy              117      1.157032  3 O  dxx        
   120      1.158976  3 O  dyy               76     -1.110002  2 C  dzz        
   104      1.105271  3 O  pz                47      1.003392  2 C  s          

 Vector   20  Occ=0.000000D+00  E= 2.427073D-01
              MO Center=  7.4D-07,  1.5D-07,  6.9D-01, r^2= 1.1D+01
   Bfn.  Coefficient  Atom+Function         Bfn.  Coefficient  Atom+Function  
  ----- ------------  ---------------      ----- ------------  ---------------
    92     25.648554  3 O  s                 48    -15.248736  2 C  s          
    76    -11.502654  2 C  dzz                6      6.915261  1 N  s          
   104     -4.602700  3 O  pz                71     -4.060418  2 C  dxx        
     5      3.766568  1 N  s                 49     -3.580616  2 C  s          
    74     -3.329116  2 C  dyy               15     -1.865426  1 N  pz         

 Vector   21  Occ=0.000000D+00  E= 2.429484D-01
              MO Center= -7.3D-07, -1.4D-07, -7.4D-01, r^2= 7.8D+00
   Bfn.  Coefficient  Atom+Function         Bfn.  Coefficient  Atom+Function  
  ----- ------------  ---------------      ----- ------------  ---------------
    73      2.855065  2 C  dxz               56     -2.474299  2 C  px         
    13      2.172953  1 N  px                30      1.563900  1 N  dxz        
    75      0.561225  2 C  dyz               57     -0.486377  2 C  py         
    14      0.427141  1 N  py               102      0.424559  3 O  px         
    32      0.307418  1 N  dyz               99     -0.306385  3 O  px         

 Vector   22  Occ=0.000000D+00  E= 2.466902D-01
              MO Center=  1.4D-10, -1.1D-09, -5.8D-02, r^2= 5.5D+00
   Bfn.  Coefficient  Atom+Function         Bfn.  Coefficient  Atom+Function  
  ----- ------------  ---------------      ----- ------------  ---------------
    72      1.849623  2 C  dxy               71     -0.378191  2 C  dxx        
    74      0.378211  2 C  dyy              118     -0.199747  3 O  dxy        
    29     -0.174330  1 N  dxy               23      0.063804  1 N  dxy        
   112      0.052730  3 O  dxy               60      0.049130  2 C  dxy        
   117      0.040845  3 O  dxx              120     -0.040842  3 O  dyy        

 Vector   23  Occ=0.000000D+00  E= 2.475705D-01
              MO Center= -1.8D-09,  5.7D-09,  7.9D-02, r^2= 6.6D+00
   Bfn.  Coefficient  Atom+Function         Bfn.  Coefficient  Atom+Function  
  ----- ------------  ---------------      ----- ------------  ---------------
    92     11.055876  3 O  s                 48     -6.432988  2 C  s          
    76     -4.954283  2 C  dzz                6      3.049769  1 N  s          
    74     -2.480382  2 C  dyy              104     -1.968672  3 O  pz         
     5      1.515389  1 N  s                 49     -1.498705  2 C  s          
    15     -0.820546  1 N  pz                71     -0.782005  2 C  dxx        

 Vector   24  Occ=0.000000D+00  E= 2.505989D-01
              MO Center=  2.2D-09, -1.1D-08, -7.4D-01, r^2= 7.7D+00
   Bfn.  Coefficient  Atom+Function         Bfn.  Coefficient  Atom+Function  
  ----- ------------  ---------------      ----- ------------  ---------------
    75      2.904916  2 C  dyz               57     -2.514041  2 C  py         
    14      2.250089  1 N  py                32      1.585103  1 N  dyz        
    73     -0.571024  2 C  dxz               56      0.494189  2 C  px         
    13     -0.442304  1 N  px               103      0.405213  3 O  py         
    30     -0.311586  1 N  dxz              100     -0.309970  3 O  py         

 Vector   25  Occ=0.000000D+00  E= 3.457823D-01
              MO Center=  3.6D-09,  3.9D-09, -3.1D-01, r^2= 7.6D+00
   Bfn.  Coefficient  Atom+Function         Bfn.  Coefficient  Atom+Function  
  ----- ------------  ---------------      ----- ------------  ---------------
    48    -21.869308  2 C  s                  5     21.660236  1 N  s          
    76     -9.832078  2 C  dzz               58      8.938700  2 C  pz         
    49      8.125998  2 C  s                 92     -5.248582  3 O  s          
     6     -4.801672  1 N  s                 15      3.867320  1 N  pz         
    91      3.855465  3 O  s                 33      3.751502  1 N  dzz        

 Vector   26  Occ=0.000000D+00  E= 3.696744D-01
              MO Center=  1.7D-08,  2.2D-09,  8.3D-01, r^2= 7.3D+00
   Bfn.  Coefficient  Atom+Function         Bfn.  Coefficient  Atom+Function  
  ----- ------------  ---------------      ----- ------------  ---------------
    56      3.477333  2 C  px                73      3.201233  2 C  dxz        
   102     -1.816060  3 O  px                99     -1.637980  3 O  px         
   119      1.438363  3 O  dxz               57      0.683545  2 C  py         
    75      0.629271  2 C  dyz               53     -0.480234  2 C  px         
   103     -0.356986  3 O  py                30     -0.350522  1 N  dxz        

 Vector   27  Occ=0.000000D+00  E= 3.747149D-01
              MO Center= -2.4D-08,  1.2D-07,  8.3D-01, r^2= 7.3D+00
   Bfn.  Coefficient  Atom+Function         Bfn.  Coefficient  Atom+Function  
  ----- ------------  ---------------      ----- ------------  ---------------
    57      3.492567  2 C  py                75      3.216420  2 C  dyz        
   103     -1.812916  3 O  py               100     -1.657693  3 O  py         
   121      1.451402  3 O  dyz               56     -0.686539  2 C  px         
    73     -0.632257  2 C  dxz               54     -0.474692  2 C  py         
    32     -0.360610  1 N  dyz              102      0.356368  3 O  px         

 Vector   28  Occ=0.000000D+00  E= 3.754245D-01
              MO Center= -2.1D-10, -1.3D-07,  7.3D-01, r^2= 8.3D+00
   Bfn.  Coefficient  Atom+Function         Bfn.  Coefficient  Atom+Function  
  ----- ------------  ---------------      ----- ------------  ---------------
     5     16.238996  1 N  s                 58     13.412428  2 C  pz         
    48     -7.554577  2 C  s                 92     -6.815382  3 O  s          
    15      6.736104  1 N  pz                49     -5.210193  2 C  s          
    71      4.465863  2 C  dxx               74      4.473577  2 C  dyy        
    91     -3.944269  3 O  s                 76      3.333307  2 C  dzz        

 Vector   29  Occ=0.000000D+00  E= 4.263934D-01
              MO Center=  3.6D-09,  2.8D-09,  2.9D-02, r^2= 1.0D+01
   Bfn.  Coefficient  Atom+Function         Bfn.  Coefficient  Atom+Function  
  ----- ------------  ---------------      ----- ------------  ---------------
    48     68.276014  2 C  s                  5    -34.859734  1 N  s          
    76     29.046234  2 C  dzz               91    -28.252550  3 O  s          
    92    -15.559937  3 O  s                  6    -13.286245  1 N  s          
    49      7.763408  2 C  s                117     -7.791585  3 O  dxx        
   120     -7.776984  3 O  dyy              122     -6.287343  3 O  dzz        

 Vector   30  Occ=0.000000D+00  E= 4.415162D-01
              MO Center=  3.9D-09,  2.4D-09, -1.1D+00, r^2= 8.9D+00
   Bfn.  Coefficient  Atom+Function         Bfn.  Coefficient  Atom+Function  
  ----- ------------  ---------------      ----- ------------  ---------------
    48     38.782197  2 C  s                  5    -21.717974  1 N  s          
    91    -13.890448  3 O  s                  6      9.607004  1 N  s          
    76      9.622810  2 C  dzz               92     -7.879026  3 O  s          
    33     -5.945947  1 N  dzz               28     -5.555112  1 N  dxx        
    31     -5.063248  1 N  dyy               15     -4.270075  1 N  pz         

 Vector   31  Occ=0.000000D+00  E= 4.499244D-01
              MO Center=  9.4D-10,  1.6D-09, -6.1D-01, r^2= 5.5D+00
   Bfn.  Coefficient  Atom+Function         Bfn.  Coefficient  Atom+Function  
  ----- ------------  ---------------      ----- ------------  ---------------
    29      1.882004  1 N  dxy               72     -0.885952  2 C  dxy        
   118     -0.679917  3 O  dxy               28     -0.384836  1 N  dxx        
    31      0.384809  1 N  dyy               71      0.181143  2 C  dxx        
    74     -0.181167  2 C  dyy              117      0.139008  3 O  dxx        
   120     -0.139043  3 O  dyy               23     -0.060861  1 N  dxy        

 Vector   32  Occ=0.000000D+00  E= 4.507852D-01
              MO Center=  2.9D-10,  8.3D-10, -6.8D-01, r^2= 5.7D+00
   Bfn.  Coefficient  Atom+Function         Bfn.  Coefficient  Atom+Function  
  ----- ------------  ---------------      ----- ------------  ---------------
    48      4.431883  2 C  s                  6      3.705191  1 N  s          
     5     -2.333234  1 N  s                 31     -1.936868  1 N  dyy        
    91     -1.845356  3 O  s                 33     -1.435293  1 N  dzz        
    71     -0.940112  2 C  dxx              101      0.920972  3 O  pz         
    15     -0.857553  1 N  pz                47      0.840976  2 C  s          

 Vector   33  Occ=0.000000D+00  E= 4.883433D-01
              MO Center= -1.2D-08, -3.9D-09, -1.1D+00, r^2= 6.0D+00
   Bfn.  Coefficient  Atom+Function         Bfn.  Coefficient  Atom+Function  
  ----- ------------  ---------------      ----- ------------  ---------------
    30      2.157816  1 N  dxz               73     -1.773704  2 C  dxz        
    53     -1.154593  2 C  px               119     -1.044013  3 O  dxz        
    56     -0.871023  2 C  px                99      0.610576  3 O  px         
   102      0.566217  3 O  px                32      0.424166  1 N  dyz        
    13     -0.409437  1 N  px                10      0.383258  1 N  px         

 Vector   34  Occ=0.000000D+00  E= 4.959067D-01
              MO Center=  2.7D-11, -7.4D-09, -1.1D+00, r^2= 6.0D+00
   Bfn.  Coefficient  Atom+Function         Bfn.  Coefficient  Atom+Function  
  ----- ------------  ---------------      ----- ------------  ---------------
    32      2.197587  1 N  dyz               75     -1.741739  2 C  dyz        
    54     -1.177640  2 C  py               121     -1.067862  3 O  dyz        
    57     -0.935164  2 C  py               100      0.633148  3 O  py         
   103      0.571077  3 O  py                30     -0.431983  1 N  dxz        
    11      0.379610  1 N  py                14     -0.345030  1 N  py         

 Vector   35  Occ=0.000000D+00  E= 5.502901D-01
              MO Center= -9.8D-09, -6.6D-09,  6.0D-01, r^2= 9.3D+00
   Bfn.  Coefficient  Atom+Function         Bfn.  Coefficient  Atom+Function  
  ----- ------------  ---------------      ----- ------------  ---------------
    92     39.668054  3 O  s                 76    -22.684982  2 C  dzz        
    48    -19.836765  2 C  s                  6     13.305882  1 N  s          
    49     -7.663609  2 C  s                  5      5.581687  1 N  s          
    15     -5.130509  1 N  pz                74     -5.116251  2 C  dyy        
    71     -5.056673  2 C  dxx              104     -4.768790  3 O  pz         

 Vector   36  Occ=0.000000D+00  E= 5.823210D-01
              MO Center= -2.2D-06, -1.7D-06,  1.1D+00, r^2= 5.3D+00
   Bfn.  Coefficient  Atom+Function         Bfn.  Coefficient  Atom+Function  
  ----- ------------  ---------------      ----- ------------  ---------------
   119      2.606493  3 O  dxz               73     -1.677757  2 C  dxz        
    30      1.081861  1 N  dxz               53      0.624728  2 C  px         
   121      0.512363  3 O  dyz               56      0.452029  2 C  px         
    67      0.408003  2 C  dxz               75     -0.329799  2 C  dyz        
   102     -0.321812  3 O  px                13     -0.313786  1 N  px         

 Vector   37  Occ=0.000000D+00  E= 5.824253D-01
              MO Center=  2.5D-06,  4.8D-07,  4.6D-01, r^2= 5.7D+00
   Bfn.  Coefficient  Atom+Function         Bfn.  Coefficient  Atom+Function  
  ----- ------------  ---------------      ----- ------------  ---------------
    48      4.065338  2 C  s                  5     -2.468310  1 N  s          
    76      2.334818  2 C  dzz              117     -1.668692  3 O  dxx        
    71      1.610392  2 C  dxx               28     -1.363656  1 N  dxx        
    91     -1.288115  3 O  s                 74     -1.253394  2 C  dyy        
    92     -1.228548  3 O  s                 72      1.169077  2 C  dxy        

 Vector   38  Occ=0.000000D+00  E= 5.825211D-01
              MO Center= -2.8D-07,  1.2D-06,  4.6D-01, r^2= 5.7D+00
   Bfn.  Coefficient  Atom+Function         Bfn.  Coefficient  Atom+Function  
  ----- ------------  ---------------      ----- ------------  ---------------
    72      2.869054  2 C  dxy              118     -2.342484  3 O  dxy        
    29     -1.777870  1 N  dxy               71     -0.585507  2 C  dxx        
    74      0.585728  2 C  dyy              117      0.477828  3 O  dxx        
   120     -0.478445  3 O  dyy               28      0.362593  1 N  dxx        
    31     -0.363188  1 N  dyy               66     -0.183642  2 C  dxy        

 Vector   39  Occ=0.000000D+00  E= 5.881033D-01
              MO Center=  3.8D-08,  1.8D-08,  1.1D+00, r^2= 5.3D+00
   Bfn.  Coefficient  Atom+Function         Bfn.  Coefficient  Atom+Function  
  ----- ------------  ---------------      ----- ------------  ---------------
   121      2.640261  3 O  dyz               75     -1.747506  2 C  dyz        
    32      1.035300  1 N  dyz               54      0.646796  2 C  py         
    57      0.540217  2 C  py               119     -0.519000  3 O  dxz        
    14     -0.419683  1 N  py                69      0.418242  2 C  dyz        
    73      0.343510  2 C  dxz              103     -0.328955  3 O  py         

 Vector   40  Occ=0.000000D+00  E= 6.399815D-01
              MO Center= -3.0D-09, -2.2D-09, -1.5D-01, r^2= 7.2D+00
   Bfn.  Coefficient  Atom+Function         Bfn.  Coefficient  Atom+Function  
  ----- ------------  ---------------      ----- ------------  ---------------
    48     44.924503  2 C  s                  5    -29.459375  1 N  s          
    76     28.624163  2 C  dzz               91    -14.160477  3 O  s          
    49     -9.736721  2 C  s                 92     -9.086014  3 O  s          
   120     -7.098074  3 O  dyy              117     -6.971279  3 O  dxx        
    31     -6.809400  1 N  dyy               28     -6.679631  1 N  dxx        

 Vector   41  Occ=0.000000D+00  E= 7.278473D-01
              MO Center= -7.0D-10, -1.5D-09, -1.0D+00, r^2= 4.8D+00
   Bfn.  Coefficient  Atom+Function         Bfn.  Coefficient  Atom+Function  
  ----- ------------  ---------------      ----- ------------  ---------------
    13      5.263732  1 N  px                56     -4.014859  2 C  px         
    73      3.134629  2 C  dxz               30      2.724975  1 N  dxz        
    10     -1.450605  1 N  px               119     -1.165257  3 O  dxz        
    14      1.034703  1 N  py                57     -0.789210  2 C  py         
    53     -0.740820  2 C  px                75      0.616181  2 C  dyz        

 Vector   42  Occ=0.000000D+00  E= 7.351730D-01
              MO Center= -1.0D-09,  7.3D-10, -4.4D-01, r^2= 7.3D+00
   Bfn.  Coefficient  Atom+Function         Bfn.  Coefficient  Atom+Function  
  ----- ------------  ---------------      ----- ------------  ---------------
     5     37.582609  1 N  s                 58     31.046866  2 C  pz         
    48    -30.630429  2 C  s                 76     -9.803213  2 C  dzz        
    28      5.388630  1 N  dxx               31      5.398154  1 N  dyy        
    15      5.328195  1 N  pz                91     -4.198713  3 O  s          
     6      2.752463  1 N  s                 71      2.664630  2 C  dxx        

 Vector   43  Occ=0.000000D+00  E= 7.445963D-01
              MO Center= -8.5D-10, -1.8D-09, -1.0D+00, r^2= 4.7D+00
   Bfn.  Coefficient  Atom+Function         Bfn.  Coefficient  Atom+Function  
  ----- ------------  ---------------      ----- ------------  ---------------
    14      5.264432  1 N  py                57     -4.012083  2 C  py         
    75      3.075923  2 C  dyz               32      2.726918  1 N  dyz        
    11     -1.490366  1 N  py               121     -1.124842  3 O  dyz        
    13     -1.034841  1 N  px                56      0.788664  2 C  px         
    54     -0.720246  2 C  py                73     -0.604641  2 C  dxz        

 Vector   44  Occ=0.000000D+00  E= 7.988103D-01
              MO Center=  9.4D-10,  8.5D-10,  1.6D-01, r^2= 6.8D+00
   Bfn.  Coefficient  Atom+Function         Bfn.  Coefficient  Atom+Function  
  ----- ------------  ---------------      ----- ------------  ---------------
    92     29.193055  3 O  s                 76    -25.607665  2 C  dzz        
    48    -24.136085  2 C  s                 91     15.667287  3 O  s          
    15    -13.307216  1 N  pz                58    -12.273176  2 C  pz         
     6      8.861477  1 N  s                 55     -5.100035  2 C  pz         
    47      4.951860  2 C  s                 71     -4.183150  2 C  dxx        

 Vector   45  Occ=0.000000D+00  E= 8.725745D-01
              MO Center=  5.4D-10,  4.0D-10,  5.2D-01, r^2= 7.2D+00
   Bfn.  Coefficient  Atom+Function         Bfn.  Coefficient  Atom+Function  
  ----- ------------  ---------------      ----- ------------  ---------------
    48    101.489878  2 C  s                 76     48.537702  2 C  dzz        
     5    -47.504156  1 N  s                 91    -36.299735  3 O  s          
    92    -29.796039  3 O  s                  6    -14.439053  1 N  s          
   117    -13.537345  3 O  dxx              120    -13.482481  3 O  dyy        
    28     -8.039377  1 N  dxx               31     -7.989042  1 N  dyy        

 Vector   46  Occ=0.000000D+00  E= 8.933776D-01
              MO Center=  2.3D-10,  8.4D-10, -7.7D-02, r^2= 2.7D+00
   Bfn.  Coefficient  Atom+Function         Bfn.  Coefficient  Atom+Function  
  ----- ------------  ---------------      ----- ------------  ---------------
    66      1.855656  2 C  dxy              118     -0.971087  3 O  dxy        
    29     -0.951570  1 N  dxy               65     -0.379486  2 C  dxx        
    68      0.379472  2 C  dyy               72      0.267426  2 C  dxy        
    23      0.231492  1 N  dxy              117      0.198566  3 O  dxx        
   120     -0.198606  3 O  dyy               28      0.194583  1 N  dxx        

 Vector   47  Occ=0.000000D+00  E= 8.935579D-01
              MO Center=  7.3D-10,  9.9D-11, -7.5D-02, r^2= 2.7D+00
   Bfn.  Coefficient  Atom+Function         Bfn.  Coefficient  Atom+Function  
  ----- ------------  ---------------      ----- ------------  ---------------
    48      6.985397  2 C  s                  5     -3.245809  1 N  s          
    76      3.012385  2 C  dzz               91     -2.574337  3 O  s          
    92     -1.832027  3 O  s                120     -1.348165  3 O  dyy        
    65     -1.152384  2 C  dxx               31     -0.995625  1 N  dyy        
     6     -0.953322  1 N  s                 66     -0.757024  2 C  dxy        

 Vector   48  Occ=0.000000D+00  E= 9.141055D-01
              MO Center= -1.6D-09, -1.4D-09,  9.2D-01, r^2= 4.4D+00
   Bfn.  Coefficient  Atom+Function         Bfn.  Coefficient  Atom+Function  
  ----- ------------  ---------------      ----- ------------  ---------------
    99     -4.777912  3 O  px                56      4.473792  2 C  px         
    73      3.658804  2 C  dxz              119      3.043037  3 O  dxz        
   102     -1.316221  3 O  px                30     -1.293011  1 N  dxz        
    96      1.275996  3 O  px               100     -0.939204  3 O  py         
    57      0.879423  2 C  py                53      0.831018  2 C  px         

 Vector   49  Occ=0.000000D+00  E= 9.237244D-01
              MO Center= -6.7D-10, -8.7D-10,  9.3D-01, r^2= 4.4D+00
   Bfn.  Coefficient  Atom+Function         Bfn.  Coefficient  Atom+Function  
  ----- ------------  ---------------      ----- ------------  ---------------
   100     -4.792941  3 O  py                57      4.439757  2 C  py         
    75      3.670639  2 C  dyz              121      3.045331  3 O  dyz        
   103     -1.310227  3 O  py                97      1.287796  3 O  py         
    32     -1.249242  1 N  dyz               99      0.942159  3 O  px         
    56     -0.872733  2 C  px                54      0.819275  2 C  py         

 Vector   50  Occ=0.000000D+00  E= 1.010735D+00
              MO Center= -9.2D-10, -9.3D-10, -6.8D-01, r^2= 6.0D+00
   Bfn.  Coefficient  Atom+Function         Bfn.  Coefficient  Atom+Function  
  ----- ------------  ---------------      ----- ------------  ---------------
    48     31.602874  2 C  s                 91    -17.109238  3 O  s          
     6      9.631105  1 N  s                  5     -8.861436  1 N  s          
   101      7.923125  3 O  pz                47      7.840792  2 C  s          
    33     -6.543446  1 N  dzz               15     -6.454791  1 N  pz         
    28     -4.397882  1 N  dxx               31     -4.401304  1 N  dyy        

 Vector   51  Occ=0.000000D+00  E= 1.042846D+00
              MO Center= -7.4D-10, -6.5D-10, -4.9D-01, r^2= 4.4D+00
   Bfn.  Coefficient  Atom+Function         Bfn.  Coefficient  Atom+Function  
  ----- ------------  ---------------      ----- ------------  ---------------
     5     23.982610  1 N  s                 92    -22.876641  3 O  s          
    58     19.657287  2 C  pz                76     18.605957  2 C  dzz        
    15     18.242757  1 N  pz                48    -13.355284  2 C  s          
    47    -12.020758  2 C  s                  6    -10.078468  1 N  s          
   101     -7.614490  3 O  pz                33      6.416613  1 N  dzz        

 Vector   52  Occ=0.000000D+00  E= 1.091263D+00
              MO Center=  3.4D-10,  4.8D-10,  1.5D-02, r^2= 6.6D+00
   Bfn.  Coefficient  Atom+Function         Bfn.  Coefficient  Atom+Function  
  ----- ------------  ---------------      ----- ------------  ---------------
    76     27.615309  2 C  dzz               92    -22.998323  3 O  s          
    48     17.319163  2 C  s                 47    -12.603227  2 C  s          
   101    -11.965803  3 O  pz                28     -8.515722  1 N  dxx        
    31     -8.489757  1 N  dyy               15      8.069309  1 N  pz         
    71      5.912783  2 C  dxx               74      5.889784  2 C  dyy        

 Vector   53  Occ=0.000000D+00  E= 1.149086D+00
              MO Center=  2.3D-09,  5.7D-10, -3.1D-01, r^2= 2.7D+00
   Bfn.  Coefficient  Atom+Function         Bfn.  Coefficient  Atom+Function  
  ----- ------------  ---------------      ----- ------------  ---------------
    67      2.730968  2 C  dxz              119      1.703067  3 O  dxz        
    99     -1.346634  3 O  px                30      1.132794  1 N  dxz        
    56      0.855176  2 C  px                10      0.679528  1 N  px         
    69      0.536831  2 C  dyz               13      0.439120  1 N  px         
    24     -0.409099  1 N  dxz              102     -0.357676  3 O  px         

 Vector   54  Occ=0.000000D+00  E= 1.168738D+00
              MO Center= -1.7D-10,  1.4D-09, -3.1D-01, r^2= 2.7D+00
   Bfn.  Coefficient  Atom+Function         Bfn.  Coefficient  Atom+Function  
  ----- ------------  ---------------      ----- ------------  ---------------
    69      2.755577  2 C  dyz              121      1.665268  3 O  dyz        
   100     -1.304629  3 O  py                32      1.125434  1 N  dyz        
    57      0.823474  2 C  py                11      0.702023  1 N  py         
    67     -0.541668  2 C  dxz               14      0.436478  1 N  py         
    26     -0.383581  1 N  dyz               97     -0.349103  3 O  py         

 Vector   55  Occ=0.000000D+00  E= 1.283960D+00
              MO Center=  1.1D-09,  9.0D-10,  1.1D+00, r^2= 5.0D+00
   Bfn.  Coefficient  Atom+Function         Bfn.  Coefficient  Atom+Function  
  ----- ------------  ---------------      ----- ------------  ---------------
    48     36.197967  2 C  s                 76     18.206037  2 C  dzz        
     5    -18.104997  1 N  s                117     -9.727469  3 O  dxx        
   120     -9.718474  3 O  dyy               91     -8.748406  3 O  s          
    47     -8.656824  2 C  s                 49     -8.421846  2 C  s          
    92      7.717435  3 O  s                122     -6.518551  3 O  dzz        

 Vector   56  Occ=0.000000D+00  E= 1.375504D+00
              MO Center= -6.5D-10, -2.8D-09,  1.7D-01, r^2= 2.9D+00
   Bfn.  Coefficient  Atom+Function         Bfn.  Coefficient  Atom+Function  
  ----- ------------  ---------------      ----- ------------  ---------------
    53      4.593782  2 C  px               119      2.146801  3 O  dxz        
    99     -1.916862  3 O  px                13     -1.486036  1 N  px         
    30     -1.472894  1 N  dxz               56      1.372279  2 C  px         
    50     -1.175270  2 C  px                77     -1.015500  2 C  fxxx       
    80     -1.018148  2 C  fxyy              82     -0.968513  2 C  fxzz       

 Vector   57  Occ=0.000000D+00  E= 1.382755D+00
              MO Center= -2.1D-08, -9.8D-10, -1.0D+00, r^2= 2.1D+00
   Bfn.  Coefficient  Atom+Function         Bfn.  Coefficient  Atom+Function  
  ----- ------------  ---------------      ----- ------------  ---------------
    23      1.832226  1 N  dxy               29     -1.159814  1 N  dxy        
    72      0.624221  2 C  dxy               66     -0.581778  2 C  dxy        
    22     -0.374678  1 N  dxx               25      0.374672  1 N  dyy        
   112     -0.330667  3 O  dxy               28      0.237167  1 N  dxx        
    31     -0.237177  1 N  dyy               81     -0.234126  2 C  fxyz       

 Vector   58  Occ=0.000000D+00  E= 1.383109D+00
              MO Center=  4.1D-09, -1.1D-08, -1.0D+00, r^2= 2.1D+00
   Bfn.  Coefficient  Atom+Function         Bfn.  Coefficient  Atom+Function  
  ----- ------------  ---------------      ----- ------------  ---------------
    22      1.006665  1 N  dxx                5     -0.863135  1 N  s          
    25     -0.824036  1 N  dyy               92      0.781725  3 O  s          
    31      0.758438  1 N  dyy               23      0.748726  1 N  dxy        
    76     -0.740007  2 C  dzz               15     -0.692904  1 N  pz         
    58     -0.495694  2 C  pz                74     -0.495815  2 C  dyy        

 Vector   59  Occ=0.000000D+00  E= 1.383822D+00
              MO Center=  1.8D-08,  1.6D-08,  1.7D-01, r^2= 2.9D+00
   Bfn.  Coefficient  Atom+Function         Bfn.  Coefficient  Atom+Function  
  ----- ------------  ---------------      ----- ------------  ---------------
    54      4.597331  2 C  py               121      2.148535  3 O  dyz        
   100     -1.925348  3 O  py                14     -1.510065  1 N  py         
    32     -1.480498  1 N  dyz               57      1.390224  2 C  py         
    51     -1.176192  2 C  py                78     -1.013305  2 C  fxxy       
    83     -1.016069  2 C  fyyy              85     -0.964232  2 C  fyzz       

 Vector   60  Occ=0.000000D+00  E= 1.529626D+00
              MO Center=  8.1D-10,  1.2D-09, -4.5D-01, r^2= 3.8D+00
   Bfn.  Coefficient  Atom+Function         Bfn.  Coefficient  Atom+Function  
  ----- ------------  ---------------      ----- ------------  ---------------
    48     25.150161  2 C  s                 76     17.644685  2 C  dzz        
    92    -12.611725  3 O  s                 15     10.448210  1 N  pz         
    70     -8.020082  2 C  dzz               46     -7.667369  2 C  s          
    65     -6.727135  2 C  dxx               68     -6.729982  2 C  dyy        
   101     -6.463002  3 O  pz                 6     -6.404946  1 N  s          

 Vector   61  Occ=0.000000D+00  E= 1.670732D+00
              MO Center= -2.2D-09, -3.2D-10, -8.1D-01, r^2= 2.8D+00
   Bfn.  Coefficient  Atom+Function         Bfn.  Coefficient  Atom+Function  
  ----- ------------  ---------------      ----- ------------  ---------------
    24      2.458810  1 N  dxz               13      2.315871  1 N  px         
    67      2.116771  2 C  dxz               73      1.611585  2 C  dxz        
    53     -1.304962  2 C  px               113     -0.746895  3 O  dxz        
    10     -0.577730  1 N  px                30      0.505209  1 N  dxz        
    26      0.483333  1 N  dyz               99     -0.484507  3 O  px         

 Vector   62  Occ=0.000000D+00  E= 1.692305D+00
              MO Center=  4.8D-10, -1.6D-09, -8.1D-01, r^2= 2.8D+00
   Bfn.  Coefficient  Atom+Function         Bfn.  Coefficient  Atom+Function  
  ----- ------------  ---------------      ----- ------------  ---------------
    26      2.463871  1 N  dyz               14      2.271943  1 N  py         
    69      2.085786  2 C  dyz               75      1.579156  2 C  dyz        
    54     -1.290269  2 C  py               115     -0.755798  3 O  dyz        
    11     -0.567065  1 N  py                24     -0.484328  1 N  dxz        
    32      0.481647  1 N  dyz              100     -0.467262  3 O  py         

 Vector   63  Occ=0.000000D+00  E= 1.792814D+00
              MO Center= -4.5D-10, -4.5D-10,  2.2D-01, r^2= 4.0D+00
   Bfn.  Coefficient  Atom+Function         Bfn.  Coefficient  Atom+Function  
  ----- ------------  ---------------      ----- ------------  ---------------
     5     31.415629  1 N  s                 48    -30.292120  2 C  s          
    55     16.315026  2 C  pz                15     12.226501  1 N  pz         
    58     11.279837  2 C  pz                 4      9.488033  1 N  s          
    92     -8.780593  3 O  s                101      7.036706  3 O  pz         
    47     -6.198858  2 C  s                 91     -4.971341  3 O  s          

 Vector   64  Occ=0.000000D+00  E= 1.800019D+00
              MO Center= -1.1D-10, -1.2D-10,  8.8D-01, r^2= 1.7D+00
   Bfn.  Coefficient  Atom+Function         Bfn.  Coefficient  Atom+Function  
  ----- ------------  ---------------      ----- ------------  ---------------
    48      0.977897  2 C  s                111      0.885585  3 O  dxx        
   114     -0.831005  3 O  dyy              112      0.700864  3 O  dxy        
     5     -0.694552  1 N  s                 74     -0.646350  2 C  dyy        
   120      0.575170  3 O  dyy               91     -0.535480  3 O  s          
   117     -0.529363  3 O  dxx               47      0.513800  2 C  s          

 Vector   65  Occ=0.000000D+00  E= 1.800082D+00
              MO Center= -1.3D-10, -1.8D-10,  8.8D-01, r^2= 1.7D+00
   Bfn.  Coefficient  Atom+Function         Bfn.  Coefficient  Atom+Function  
  ----- ------------  ---------------      ----- ------------  ---------------
   112      1.717197  3 O  dxy              118     -1.104960  3 O  dxy        
    72      1.006221  2 C  dxy               23      0.590864  1 N  dxy        
    29     -0.580443  1 N  dxy               66     -0.565515  2 C  dxy        
    81      0.409560  2 C  fxyz             111     -0.350539  3 O  dxx        
   114      0.350574  3 O  dyy              117      0.225595  3 O  dxx        

 Vector   66  Occ=0.000000D+00  E= 1.984067D+00
              MO Center=  1.5D-09,  5.8D-10, -8.8D-01, r^2= 2.8D+00
   Bfn.  Coefficient  Atom+Function         Bfn.  Coefficient  Atom+Function  
  ----- ------------  ---------------      ----- ------------  ---------------
    48     35.298524  2 C  s                  5    -29.653840  1 N  s          
    47     13.524769  2 C  s                 58    -13.019751  2 C  pz         
    91    -12.528305  3 O  s                 15    -10.980894  1 N  pz         
   101      7.490686  3 O  pz                55      6.116271  2 C  pz         
    71     -4.258231  2 C  dxx               74     -4.228417  2 C  dyy        

 Vector   67  Occ=0.000000D+00  E= 2.011178D+00
              MO Center= -2.5D-09, -3.5D-11, -6.3D-01, r^2= 2.7D+00
   Bfn.  Coefficient  Atom+Function         Bfn.  Coefficient  Atom+Function  
  ----- ------------  ---------------      ----- ------------  ---------------
    10      3.660437  1 N  px                13     -3.599126  1 N  px         
    56      2.213798  2 C  px                73     -2.001665  2 C  dxz        
    30     -1.395411  1 N  dxz              113     -1.086880  3 O  dxz        
     7     -1.064348  1 N  px                37     -0.858757  1 N  fxyy       
    34     -0.852787  1 N  fxxx              39     -0.819914  1 N  fxzz       

 Vector   68  Occ=0.000000D+00  E= 2.038613D+00
              MO Center=  6.5D-10, -9.2D-10, -6.2D-01, r^2= 2.8D+00
   Bfn.  Coefficient  Atom+Function         Bfn.  Coefficient  Atom+Function  
  ----- ------------  ---------------      ----- ------------  ---------------
    11      3.621604  1 N  py                14     -3.578495  1 N  py         
    57      2.155860  2 C  py                75     -2.020499  2 C  dyz        
    32     -1.377042  1 N  dyz              115     -1.113804  3 O  dyz        
     8     -1.060490  1 N  py                40     -0.855976  1 N  fyyy       
    35     -0.849945  1 N  fxxy              42     -0.821812  1 N  fyzz       

 Vector   69  Occ=0.000000D+00  E= 2.216374D+00
              MO Center=  2.0D-09,  2.3D-09, -1.5D-01, r^2= 3.9D+00
   Bfn.  Coefficient  Atom+Function         Bfn.  Coefficient  Atom+Function  
  ----- ------------  ---------------      ----- ------------  ---------------
    47     29.280025  2 C  s                 48     21.542378  2 C  s          
    91    -19.368530  3 O  s                 70     14.397322  2 C  dzz        
   101     12.159929  3 O  pz                15    -11.330669  1 N  pz         
     5     -8.821904  1 N  s                 76     -7.645444  2 C  dzz        
     4     -7.570174  1 N  s                 12     -6.656064  1 N  pz         

 Vector   70  Occ=0.000000D+00  E= 2.287584D+00
              MO Center=  6.7D-09,  4.0D-10,  9.0D-01, r^2= 2.4D+00
   Bfn.  Coefficient  Atom+Function         Bfn.  Coefficient  Atom+Function  
  ----- ------------  ---------------      ----- ------------  ---------------
    99      3.973636  3 O  px                67     -3.279735  2 C  dxz        
    56     -2.496653  2 C  px                96     -2.187482  3 O  px         
    73     -2.160547  2 C  dxz              119     -1.786825  3 O  dxz        
    10     -1.708725  1 N  px                24     -1.561426  1 N  dxz        
   113     -1.330610  3 O  dxz               93      0.790078  3 O  px         

 Vector   71  Occ=0.000000D+00  E= 2.304127D+00
              MO Center= -1.8D-09,  4.4D-09,  8.8D-01, r^2= 2.5D+00
   Bfn.  Coefficient  Atom+Function         Bfn.  Coefficient  Atom+Function  
  ----- ------------  ---------------      ----- ------------  ---------------
   100      3.954372  3 O  py                69     -3.276105  2 C  dyz        
    57     -2.513495  2 C  py                97     -2.190821  3 O  py         
    75     -2.129809  2 C  dyz              121     -1.783988  3 O  dyz        
    11     -1.760419  1 N  py                26     -1.576822  1 N  dyz        
   115     -1.311841  3 O  dyz               94      0.791844  3 O  py         

 Vector   72  Occ=0.000000D+00  E= 2.344220D+00
              MO Center=  1.5D-09,  1.8D-09, -1.1D+00, r^2= 3.8D+00
   Bfn.  Coefficient  Atom+Function         Bfn.  Coefficient  Atom+Function  
  ----- ------------  ---------------      ----- ------------  ---------------
    48     10.620981  2 C  s                  4      9.986056  1 N  s          
    76      9.943355  2 C  dzz               47     -9.024559  2 C  s          
     6      6.894395  1 N  s                 28     -6.921197  1 N  dxx        
    31     -6.915987  1 N  dyy                3     -6.400038  1 N  s          
   101     -6.294624  3 O  pz                58     -6.054830  2 C  pz         

 Vector   73  Occ=0.000000D+00  E= 2.412074D+00
              MO Center= -2.8D-09, -2.6D-09,  5.6D-01, r^2= 2.2D+00
   Bfn.  Coefficient  Atom+Function         Bfn.  Coefficient  Atom+Function  
  ----- ------------  ---------------      ----- ------------  ---------------
    48     24.220830  2 C  s                 76     16.015065  2 C  dzz        
    70    -12.647980  2 C  dzz               92    -11.487009  3 O  s          
     4      9.545455  1 N  s                 47     -8.122139  2 C  s          
    58      7.328150  2 C  pz                91     -5.662657  3 O  s          
    15      5.002390  1 N  pz               117     -4.854395  3 O  dxx        

 Vector   74  Occ=0.000000D+00  E= 2.633058D+00
              MO Center= -7.4D-09, -3.2D-10,  3.5D-01, r^2= 2.0D+00
   Bfn.  Coefficient  Atom+Function         Bfn.  Coefficient  Atom+Function  
  ----- ------------  ---------------      ----- ------------  ---------------
    67      5.306476  2 C  dxz               96     -3.186431  3 O  px         
    10      2.378496  1 N  px               113      1.905314  3 O  dxz        
    24      1.795476  1 N  dxz               69      1.043117  2 C  dyz        
    93      0.780893  3 O  px               123      0.654478  3 O  fxxx       
   126      0.656791  3 O  fxyy              73     -0.643858  2 C  dxz        

 Vector   75  Occ=0.000000D+00  E= 2.650174D+00
              MO Center=  2.2D-09, -5.5D-09,  3.4D-01, r^2= 2.0D+00
   Bfn.  Coefficient  Atom+Function         Bfn.  Coefficient  Atom+Function  
  ----- ------------  ---------------      ----- ------------  ---------------
    69      5.319602  2 C  dyz               97     -3.178845  3 O  py         
    11      2.406180  1 N  py               115      1.896609  3 O  dyz        
    26      1.805854  1 N  dyz               67     -1.045697  2 C  dxz        
    94      0.779435  3 O  py               129      0.656415  3 O  fyyy       
   124      0.652240  3 O  fxxy              75     -0.641086  2 C  dyz        

 Vector   76  Occ=0.000000D+00  E= 2.658722D+00
              MO Center=  1.5D-10,  1.2D-10, -5.7D-02, r^2= 8.5D-01
   Bfn.  Coefficient  Atom+Function         Bfn.  Coefficient  Atom+Function  
  ----- ------------  ---------------      ----- ------------  ---------------
    80      1.935629  2 C  fxyy              78     -1.281087  2 C  fxxy       
    77     -0.660666  2 C  fxxx              83      0.424009  2 C  fyyy       
    37      0.203445  1 N  fxyy              35     -0.134462  1 N  fxxy       
   126      0.078274  3 O  fxyy              34     -0.069139  1 N  fxxx       
   124     -0.056975  3 O  fxxy              67     -0.049621  2 C  dxz        

 Vector   77  Occ=0.000000D+00  E= 2.658724D+00
              MO Center=  1.0D-10,  8.3D-11, -5.7D-02, r^2= 8.5D-01
   Bfn.  Coefficient  Atom+Function         Bfn.  Coefficient  Atom+Function  
  ----- ------------  ---------------      ----- ------------  ---------------
    78      1.957745  2 C  fxxy              80      1.276283  2 C  fxyy       
    83     -0.637795  2 C  fyyy              77     -0.428315  2 C  fxxx       
    35      0.199419  1 N  fxxy              69      0.137771  2 C  dyz        
    37      0.135267  1 N  fxyy             124      0.102313  3 O  fxxy       
    97     -0.083449  3 O  py                40     -0.073192  1 N  fyyy       

 Vector   78  Occ=0.000000D+00  E= 2.879493D+00
              MO Center=  1.3D-10, -2.6D-11, -1.7D-01, r^2= 1.3D+00
   Bfn.  Coefficient  Atom+Function         Bfn.  Coefficient  Atom+Function  
  ----- ------------  ---------------      ----- ------------  ---------------
    79      1.740630  2 C  fxxz              84     -1.660044  2 C  fyyz       
    81      1.387153  2 C  fxyz              41      0.429805  1 N  fyyz       
    36     -0.415736  1 N  fxxz              46      0.412121  2 C  s          
    55     -0.413622  2 C  pz                70      0.402948  2 C  dzz        
   111     -0.389908  3 O  dxx               47     -0.381047  2 C  s          

 Vector   79  Occ=0.000000D+00  E= 2.879563D+00
              MO Center=  2.1D-11,  3.2D-11, -1.7D-01, r^2= 1.3D+00
   Bfn.  Coefficient  Atom+Function         Bfn.  Coefficient  Atom+Function  
  ----- ------------  ---------------      ----- ------------  ---------------
    81      3.402494  2 C  fxyz              38     -0.845453  1 N  fxyz       
    79     -0.693914  2 C  fxxz              84      0.693986  2 C  fyyz       
   112     -0.695785  3 O  dxy               23      0.575182  1 N  dxy        
   127     -0.259890  3 O  fxyz              66      0.248766  2 C  dxy        
    60     -0.226525  2 C  dxy               29     -0.196429  1 N  dxy        

 Vector   80  Occ=0.000000D+00  E= 2.933368D+00
              MO Center=  5.2D-09,  5.5D-09,  1.5D+00, r^2= 2.1D+00
   Bfn.  Coefficient  Atom+Function         Bfn.  Coefficient  Atom+Function  
  ----- ------------  ---------------      ----- ------------  ---------------
    48     19.663598  2 C  s                  5    -10.665431  1 N  s          
    92      9.721643  3 O  s                 90      9.004414  3 O  s          
    47     -8.894192  2 C  s                117     -5.937248  3 O  dxx        
   120     -5.935524  3 O  dyy               76      5.869843  2 C  dzz        
    89     -5.486432  3 O  s                122     -5.132337  3 O  dzz        

 Vector   81  Occ=0.000000D+00  E= 3.063278D+00
              MO Center= -4.9D-09, -4.6D-12, -3.9D-01, r^2= 1.3D+00
   Bfn.  Coefficient  Atom+Function         Bfn.  Coefficient  Atom+Function  
  ----- ------------  ---------------      ----- ------------  ---------------
    61      1.582274  2 C  dxz               82     -1.377497  2 C  fxzz       
    67     -1.196066  2 C  dxz               13     -1.061800  1 N  px         
    30     -0.906826  1 N  dxz               99      0.859566  3 O  px         
    24      0.780353  1 N  dxz               73     -0.763347  2 C  dxz        
    39     -0.752053  1 N  fxzz              53      0.648149  2 C  px         

 Vector   82  Occ=0.000000D+00  E= 3.069169D+00
              MO Center= -7.3D-10, -1.3D-11,  1.1D-02, r^2= 8.7D-01
   Bfn.  Coefficient  Atom+Function         Bfn.  Coefficient  Atom+Function  
  ----- ------------  ---------------      ----- ------------  ---------------
    47      3.408674  2 C  s                 46     -1.801103  2 C  s          
    65     -1.792407  2 C  dxx               62     -0.986173  2 C  dyy        
    59      0.926201  2 C  dxx               60      0.782184  2 C  dxy        
    70     -0.585847  2 C  dzz               66     -0.560139  2 C  dxy        
    68     -0.422914  2 C  dyy               48      0.323260  2 C  s          

 Vector   83  Occ=0.000000D+00  E= 3.069329D+00
              MO Center=  9.0D-10, -5.5D-10,  1.2D-02, r^2= 8.7D-01
   Bfn.  Coefficient  Atom+Function         Bfn.  Coefficient  Atom+Function  
  ----- ------------  ---------------      ----- ------------  ---------------
    60      1.920187  2 C  dxy               66     -1.374967  2 C  dxy        
    81      0.533238  2 C  fxyz              59     -0.392687  2 C  dxx        
    62      0.392691  2 C  dyy               65      0.281256  2 C  dxx        
    68     -0.281121  2 C  dyy              127     -0.256813  3 O  fxyz       
    38      0.236812  1 N  fxyz             118      0.226634  3 O  dxy        

 Vector   84  Occ=0.000000D+00  E= 3.082579D+00
              MO Center=  7.7D-10, -6.8D-09, -3.8D-01, r^2= 1.3D+00
   Bfn.  Coefficient  Atom+Function         Bfn.  Coefficient  Atom+Function  
  ----- ------------  ---------------      ----- ------------  ---------------
    63      1.591183  2 C  dyz               85     -1.349651  2 C  fyzz       
    69     -1.154324  2 C  dyz               14     -1.071894  1 N  py         
    32     -0.906164  1 N  dyz              100      0.853019  3 O  py         
    26      0.781786  1 N  dyz               75     -0.772070  2 C  dyz        
    42     -0.751258  1 N  fyzz              54      0.679499  2 C  py         

 Vector   85  Occ=0.000000D+00  E= 3.098078D+00
              MO Center=  6.5D-09,  1.0D-08, -1.0D-01, r^2= 1.9D+00
   Bfn.  Coefficient  Atom+Function         Bfn.  Coefficient  Atom+Function  
  ----- ------------  ---------------      ----- ------------  ---------------
    47     40.061596  2 C  s                 46    -21.014976  2 C  s          
    68    -13.079055  2 C  dyy               65    -12.957473  2 C  dxx        
    70     -6.833726  2 C  dzz               48      5.132129  2 C  s          
    98      3.358684  3 O  pz                 4     -3.045766  1 N  s          
    49      2.501899  2 C  s                116     -2.047762  3 O  dzz        

 Vector   86  Occ=0.000000D+00  E= 3.285560D+00
              MO Center= -1.1D-09, -6.3D-10,  4.7D-02, r^2= 1.4D+00
   Bfn.  Coefficient  Atom+Function         Bfn.  Coefficient  Atom+Function  
  ----- ------------  ---------------      ----- ------------  ---------------
    53      4.213979  2 C  px                77     -2.452845  2 C  fxxx       
    80     -2.461403  2 C  fxyy              82     -1.602110  2 C  fxzz       
    99     -1.358358  3 O  px               119      1.260413  3 O  dxz        
    13     -0.866926  1 N  px                54      0.828354  2 C  py         
    30     -0.805217  1 N  dxz               56      0.644589  2 C  px         

 Vector   87  Occ=0.000000D+00  E= 3.294663D+00
              MO Center= -2.8D-10, -6.1D-10,  4.8D-02, r^2= 1.4D+00
   Bfn.  Coefficient  Atom+Function         Bfn.  Coefficient  Atom+Function  
  ----- ------------  ---------------      ----- ------------  ---------------
    54      4.212086  2 C  py                78     -2.447527  2 C  fxxy       
    83     -2.455995  2 C  fyyy              85     -1.593498  2 C  fyzz       
   100     -1.366988  3 O  py               121      1.265458  3 O  dyz        
    14     -0.866759  1 N  py                53     -0.827982  2 C  px         
    32     -0.803134  1 N  dyz               57      0.650441  2 C  py         

 Vector   88  Occ=0.000000D+00  E= 3.446389D+00
              MO Center= -3.4D-09, -3.5D-09, -2.0D-01, r^2= 2.1D+00
   Bfn.  Coefficient  Atom+Function         Bfn.  Coefficient  Atom+Function  
  ----- ------------  ---------------      ----- ------------  ---------------
    47     22.214139  2 C  s                 55    -20.128634  2 C  pz         
     4    -15.968943  1 N  s                 12    -14.807276  1 N  pz         
     5     -9.980884  1 N  s                 70      7.708558  2 C  dzz        
    15     -6.583629  1 N  pz                27     -5.474434  1 N  dzz        
    92      5.017953  3 O  s                 91      4.919180  3 O  s          

 Vector   89  Occ=0.000000D+00  E= 3.651536D+00
              MO Center= -3.2D-09, -6.9D-10,  8.2D-02, r^2= 1.6D+00
   Bfn.  Coefficient  Atom+Function         Bfn.  Coefficient  Atom+Function  
  ----- ------------  ---------------      ----- ------------  ---------------
    82      3.812927  2 C  fxzz             113      1.736989  3 O  dxz        
    24     -1.689284  1 N  dxz               96     -1.470769  3 O  px         
    56     -1.176194  2 C  px                99      1.090523  3 O  px         
    10     -0.879335  1 N  px                61      0.835596  2 C  dxz        
   119     -0.835966  3 O  dxz               85      0.749511  2 C  fyzz       

 Vector   90  Occ=0.000000D+00  E= 3.669263D+00
              MO Center=  4.7D-10, -2.7D-09,  7.7D-02, r^2= 1.6D+00
   Bfn.  Coefficient  Atom+Function         Bfn.  Coefficient  Atom+Function  
  ----- ------------  ---------------      ----- ------------  ---------------
    85      3.848224  2 C  fyzz             115      1.746297  3 O  dyz        
    26     -1.689451  1 N  dyz               97     -1.479969  3 O  py         
    57     -1.176936  2 C  py               100      1.082044  3 O  py         
    11     -0.884346  1 N  py               121     -0.829644  3 O  dyz        
    63      0.812501  2 C  dyz               82     -0.756450  2 C  fxzz       

 Vector   91  Occ=0.000000D+00  E= 3.729152D+00
              MO Center=  2.2D-09,  2.9D-09, -2.1D-01, r^2= 1.7D+00
   Bfn.  Coefficient  Atom+Function         Bfn.  Coefficient  Atom+Function  
  ----- ------------  ---------------      ----- ------------  ---------------
    48     25.608212  2 C  s                 70    -18.195201  2 C  dzz        
    46    -17.718163  2 C  s                 47     17.769883  2 C  s          
     5    -14.076493  1 N  s                 76     12.406104  2 C  dzz        
    65     -8.133190  2 C  dxx               68     -8.130501  2 C  dyy        
    92     -5.179323  3 O  s                 98     -4.958187  3 O  pz         

 Vector   92  Occ=0.000000D+00  E= 3.943812D+00
              MO Center=  3.1D-11,  2.7D-11, -1.2D+00, r^2= 6.3D-01
   Bfn.  Coefficient  Atom+Function         Bfn.  Coefficient  Atom+Function  
  ----- ------------  ---------------      ----- ------------  ---------------
    35      2.017444  1 N  fxxy              37      1.293053  1 N  fxyy       
    40     -0.616784  1 N  fyyy              34     -0.441975  1 N  fxxx       
    78     -0.353761  2 C  fxxy              80     -0.238436  2 C  fxyy       
    83      0.126389  2 C  fyyy              11     -0.095478  1 N  py         
    77      0.077813  2 C  fxxx             124     -0.061519  3 O  fxxy       

 Vector   93  Occ=0.000000D+00  E= 3.943824D+00
              MO Center=  4.3D-11,  3.5D-11, -1.2D+00, r^2= 6.3D-01
   Bfn.  Coefficient  Atom+Function         Bfn.  Coefficient  Atom+Function  
  ----- ------------  ---------------      ----- ------------  ---------------
    37      1.932251  1 N  fxyy              35     -1.309803  1 N  fxxy       
    34     -0.701963  1 N  fxxx              40      0.425216  1 N  fyyy       
    80     -0.366712  2 C  fxyy              78      0.235883  2 C  fxxy       
    77      0.113429  2 C  fxxx              10      0.097660  1 N  px         
    83     -0.080361  2 C  fyyy             126     -0.060800  3 O  fxyy       

 Vector   94  Occ=0.000000D+00  E= 4.124560D+00
              MO Center= -2.2D-10, -1.6D-10, -3.4D-01, r^2= 2.0D+00
   Bfn.  Coefficient  Atom+Function         Bfn.  Coefficient  Atom+Function  
  ----- ------------  ---------------      ----- ------------  ---------------
    47     20.652460  2 C  s                 12     -8.915155  1 N  pz         
    70      8.400196  2 C  dzz               91     -8.188654  3 O  s          
     5      6.092328  1 N  s                101      5.860587  3 O  pz         
    90     -5.697781  3 O  s                 27     -5.377804  1 N  dzz        
    48     -4.651283  2 C  s                  3     -4.195540  1 N  s          

 Vector   95  Occ=0.000000D+00  E= 4.362177D+00
              MO Center=  4.8D-10,  1.5D-10, -8.2D-01, r^2= 1.3D+00
   Bfn.  Coefficient  Atom+Function         Bfn.  Coefficient  Atom+Function  
  ----- ------------  ---------------      ----- ------------  ---------------
     4     11.590724  1 N  s                 47    -10.137754  2 C  s          
     5      7.424474  1 N  s                 70     -5.208141  2 C  dzz        
    48     -5.128405  2 C  s                 15      4.711185  1 N  pz         
    58      4.300827  2 C  pz                 3     -3.319564  1 N  s          
[...]
            -------------------
           No. of orbitals :     264
            Alpha orbitals :     132
             Beta orbitals :     132
        Alpha frozen cores :       0
         Beta frozen cores :       0
     Alpha frozen virtuals :       0
      Beta frozen virtuals :       0
         Spin multiplicity :       2
    Number of AO functions :     132
        Use of symmetry is : off
      Symmetry adaption is : off
         Schwarz screening :  0.10D-07

              XC Information
              --------------
              Hartree-Fock (Exact) Exchange   1.00          
              LC-wPBE(h)Exchange Functional   1.00          
     Perdew 1991 LDA Correlation Functional   1.00 local    
    PerdewBurkeErnz. Correlation Functional   1.00 non-local
           Alpha           :  0.00
           Beta            :  1.00
           Gamma           :  0.34

             TDDFT Information
             -----------------
          Calculation type : Tamm-Dancoff TDDFT
         Wavefunction type : Unrestricted
          No. of electrons :      21
           Alpha electrons :      11
            Beta electrons :      10
              No. of roots :      10
          Max subspacesize :    6000
            Max iterations :     100
               Target root :       1
           Target symmetry : none
      Symmetry restriction : off
                 Algorithm : Optimal
        Davidson threshold :  0.10D-03

            Memory Information
            ------------------
          Available GA space size is       47185885152 doubles
          Available MA space size is         419535796 doubles
          Length of a trial vector is         1331    1220
          Algorithm : Incore multiple tensor contraction
          Estimated peak GA usage is          51623734 doubles
          Estimated peak MA usage is             51000 doubles

   10 smallest eigenvalue differences (eV) 
--------------------------------------------------------
  No. Spin  Occ  Vir  Irrep   E(Occ)    E(Vir)   E(Diff)
--------------------------------------------------------
    1    2   10   11 a        -0.425    -0.133     7.940
    2    2    9   11 a        -0.533    -0.133    10.864
    3    2    8   11 a        -0.589    -0.133    12.409
    4    2   10   12 a        -0.425     0.045    12.783
    5    2    7   11 a        -0.615    -0.133    13.111
    6    1   11   12 a        -0.440     0.043    13.164
    7    2   10   13 a        -0.425     0.094    14.128
    8    1   10   12 a        -0.482     0.043    14.288
    9    2   10   14 a        -0.425     0.102    14.357
   10    2   10   15 a        -0.425     0.104    14.408
--------------------------------------------------------

  Entering Davidson iterations
  Unrestricted

  Iter   NTrls   NConv    DeltaV     DeltaE      Time   
  ----  ------  ------  ---------  ---------  --------- 
    1     10       0     0.27E+00   0.10+100       22.9
    2     20       0     0.10E+00   0.65E-01       24.7
    3     30       0     0.16E+00   0.47E-01       24.7
    4     40       0     0.21E+00   0.29E-01       24.7
    5     50       1     0.58E-01   0.29E-01       25.1
    6     59       2     0.15E-01   0.25E-02       22.7
    7     67       3     0.94E-02   0.26E-03       21.3
    8     74       5     0.57E-01   0.61E-02       19.3
    9     79       7     0.20E-01   0.11E-02       15.6
   10     82       8     0.63E-02   0.16E-03       12.2
   11     84       9     0.17E-02   0.13E-04       10.4
   12     85       9     0.48E-03   0.84E-06        8.2
   13     86       9     0.17E-03   0.78E-07        8.2
   14     87      10     0.96E-04   0.80E-08        8.3
  ----  ------  ------  ---------  ---------  --------- 
  Convergence criterion met

  Ground state a        -167.933573876324 a.u.
  <S2> =   0.7655

  ----------------------------------------------------------------------------
  Root   1         a              0.010030266 a.u.                0.2729 eV 
  <S2> =   0.7754
  ----------------------------------------------------------------------------
     Transition Moments    X -0.00000   Y -0.00000   Z  0.00000
     Transition Moments   XX  0.19439  XY -0.47535  XZ  0.00000
     Transition Moments   YY -0.19439  YZ  0.00000  ZZ  0.00000
     Dipole Oscillator Strength                    0.0000000000
     Electric Quadrupole                           0.0000000000
     Magnetic Dipole                               0.0000000899
     Total Oscillator Strength                     0.0000000899

     Occ.    7 beta  a   ---  Virt.   11 beta  a        0.06959
     Occ.    7 beta  a   ---  Virt.   18 beta  a       -0.06107
     Occ.   10 beta  a   ---  Virt.   11 beta  a        0.99318
  ----------------------------------------------------------------------------
  Root   2         a              0.116166731 a.u.                3.1611 eV 
  <S2> =   0.7778
  ----------------------------------------------------------------------------
     Transition Moments    X -0.25096   Y -0.04933   Z -0.00000
     Transition Moments   XX  0.00000  XY  0.00000  XZ  0.85009
     Transition Moments   YY  0.00000  YZ  0.16710  ZZ -0.00000
     Dipole Oscillator Strength                    0.0050660891
     Electric Quadrupole                           0.0000000063
     Magnetic Dipole                               0.0000003215
     Total Oscillator Strength                     0.0050664169

     Occ.    9 alpha a   ---  Virt.   14 alpha a       -0.05545
     Occ.    9 alpha a   ---  Virt.   15 alpha a        0.05945
     Occ.    9 beta  a   ---  Virt.   11 beta  a        0.98514
     Occ.    9 beta  a   ---  Virt.   18 beta  a       -0.11405
     Occ.    9 beta  a   ---  Virt.   24 beta  a        0.05577
  ----------------------------------------------------------------------------
  Root   3         a              0.198217933 a.u.                5.3938 eV 
  <S2> =   0.9635
  ----------------------------------------------------------------------------
     Transition Moments    X -0.00000   Y  0.00000   Z  0.00000
     Transition Moments   XX  0.03232  XY -0.07903  XZ -0.00000
     Transition Moments   YY -0.03232  YZ  0.00000  ZZ  0.00000
     Dipole Oscillator Strength                    0.0000000000
     Electric Quadrupole                           0.0000000003
     Magnetic Dipole                               0.0000000001
     Total Oscillator Strength                     0.0000000004

     Occ.   10 alpha a   ---  Virt.   17 alpha a        0.06205
     Occ.   11 alpha a   ---  Virt.   14 alpha a       -0.07285
     Occ.   11 alpha a   ---  Virt.   15 alpha a        0.08131
     Occ.    7 beta  a   ---  Virt.   11 beta  a        0.94532
     Occ.    7 beta  a   ---  Virt.   18 beta  a        0.08691
     Occ.   10 beta  a   ---  Virt.   11 beta  a       -0.07229
     Occ.   10 beta  a   ---  Virt.   18 beta  a       -0.26773
  ----------------------------------------------------------------------------
  Root   4         a              0.201439270 a.u.                5.4814 eV 
  <S2> =   0.8594
  ----------------------------------------------------------------------------
     Transition Moments    X -0.00000   Y  0.00000   Z  0.46013
     Transition Moments   XX -0.15349  XY -0.02940  XZ -0.00000
     Transition Moments   YY -0.00972  YZ  0.00000  ZZ  0.71498
     Dipole Oscillator Strength                    0.0284322352
     Electric Quadrupole                           0.0000000095
     Magnetic Dipole                               0.0000000000
     Total Oscillator Strength                     0.0284322447

     Occ.    7 alpha a   ---  Virt.   14 alpha a        0.09031
     Occ.    7 alpha a   ---  Virt.   15 alpha a       -0.09470
     Occ.    8 alpha a   ---  Virt.   17 alpha a       -0.07930
     Occ.   10 alpha a   ---  Virt.   14 alpha a       -0.14571
     Occ.   10 alpha a   ---  Virt.   15 alpha a        0.18008
     Occ.   11 alpha a   ---  Virt.   17 alpha a        0.15574
     Occ.    7 beta  a   ---  Virt.   16 beta  a       -0.05160
     Occ.    8 beta  a   ---  Virt.   11 beta  a        0.92957
     Occ.    8 beta  a   ---  Virt.   18 beta  a        0.06906
     Occ.   10 beta  a   ---  Virt.   16 beta  a        0.12563
  ----------------------------------------------------------------------------
  Root   5         a              0.247042450 a.u.                6.7224 eV 
  <S2> =   2.7140
  ----------------------------------------------------------------------------
     Transition Moments    X -0.00000   Y  0.00000   Z -0.03623
     Transition Moments   XX  0.01276  XY -0.00272  XZ  0.00000
     Transition Moments   YY  0.02606  YZ -0.00000  ZZ  0.04128
     Dipole Oscillator Strength                    0.0002161427
     Electric Quadrupole                           0.0000000000
     Magnetic Dipole                               0.0000000000
     Total Oscillator Strength                     0.0002161427

     Occ.    8 alpha a   ---  Virt.   17 alpha a       -0.06479
     Occ.   10 alpha a   ---  Virt.   14 alpha a        0.08199
     Occ.   10 alpha a   ---  Virt.   15 alpha a       -0.08207
     Occ.   11 alpha a   ---  Virt.   16 alpha a        0.09503
     Occ.   11 alpha a   ---  Virt.   17 alpha a       -0.61263
     Occ.    7 beta  a   ---  Virt.   16 beta  a        0.06350
     Occ.   10 beta  a   ---  Virt.   15 beta  a       -0.16090
     Occ.   10 beta  a   ---  Virt.   16 beta  a        0.74388
  ----------------------------------------------------------------------------
  Root   6         a              0.262693318 a.u.                7.1483 eV 
  <S2> =   2.0156
  ----------------------------------------------------------------------------
     Transition Moments    X -0.00000   Y -0.00000   Z  0.00000
     Transition Moments   XX -0.00177  XY  0.00433  XZ  0.00000
     Transition Moments   YY  0.00177  YZ  0.00000  ZZ -0.00000
     Dipole Oscillator Strength                    0.0000000000
     Electric Quadrupole                           0.0000000000
     Magnetic Dipole                               0.0000000015
     Total Oscillator Strength                     0.0000000015

     Occ.   10 alpha a   ---  Virt.   17 alpha a       -0.05110
     Occ.   11 alpha a   ---  Virt.   14 alpha a        0.70488
     Occ.   11 alpha a   ---  Virt.   15 alpha a       -0.66796
     Occ.    7 beta  a   ---  Virt.   11 beta  a        0.15380
     Occ.   10 beta  a   ---  Virt.   18 beta  a        0.14224
  ----------------------------------------------------------------------------
  Root   7         a              0.276158532 a.u.                7.5147 eV 
  <S2> =   2.4454
  ----------------------------------------------------------------------------
     Transition Moments    X -0.01891   Y  0.09619   Z  0.00000
     Transition Moments   XX  0.00000  XY -0.00000  XZ  0.09623
     Transition Moments   YY  0.00000  YZ -0.48950  ZZ  0.00000
     Dipole Oscillator Strength                    0.0017691532
     Electric Quadrupole                           0.0000000279
     Magnetic Dipole                               0.0000002189
     Total Oscillator Strength                     0.0017694000

     Occ.   11 alpha a   ---  Virt.   12 alpha a        0.31882
     Occ.   11 alpha a   ---  Virt.   13 alpha a        0.08311
     Occ.   11 alpha a   ---  Virt.   19 alpha a       -0.14801
     Occ.   10 beta  a   ---  Virt.   12 beta  a       -0.83695
     Occ.   10 beta  a   ---  Virt.   13 beta  a       -0.19783
     Occ.   10 beta  a   ---  Virt.   19 beta  a        0.32221
     Occ.   10 beta  a   ---  Virt.   20 beta  a        0.09308
  ----------------------------------------------------------------------------
  Root   8         a              0.276716646 a.u.                7.5298 eV 
  <S2> =   0.9084
  ----------------------------------------------------------------------------
     Transition Moments    X -0.12309   Y -0.02420   Z -0.00000
     Transition Moments   XX  0.00000  XY  0.00000  XZ -0.76381
     Transition Moments   YY  0.00000  YZ -0.15015  ZZ -0.00000
     Dipole Oscillator Strength                    0.0029030967
     Electric Quadrupole                           0.0000000684
     Magnetic Dipole                               0.0000016200
     Total Oscillator Strength                     0.0029047851

     Occ.    6 alpha a   ---  Virt.   14 alpha a       -0.05408
     Occ.    6 alpha a   ---  Virt.   15 alpha a        0.05713
     Occ.    9 alpha a   ---  Virt.   15 alpha a       -0.05035
     Occ.   10 alpha a   ---  Virt.   12 alpha a       -0.05029
     Occ.    6 beta  a   ---  Virt.   11 beta  a       -0.97335
     Occ.    6 beta  a   ---  Virt.   18 beta  a       -0.14390
     Occ.    9 beta  a   ---  Virt.   18 beta  a        0.09508
  ----------------------------------------------------------------------------
  Root   9         a              0.292836812 a.u.                7.9685 eV 
  <S2> =   1.0844
  ----------------------------------------------------------------------------
     Transition Moments    X  0.04178   Y -0.21257   Z -0.00000
     Transition Moments   XX -0.00000  XY  0.00000  XZ -0.21982
     Transition Moments   YY  0.00000  YZ  1.11825  ZZ -0.00000
     Dipole Oscillator Strength                    0.0091621755
     Electric Quadrupole                           0.0000001737
     Magnetic Dipole                               0.0000012101
     Total Oscillator Strength                     0.0091635593

     Occ.   11 alpha a   ---  Virt.   12 alpha a        0.84669
     Occ.   11 alpha a   ---  Virt.   13 alpha a        0.19492
     Occ.   11 alpha a   ---  Virt.   19 alpha a       -0.30348
     Occ.   11 alpha a   ---  Virt.   20 alpha a       -0.07499
     Occ.   10 beta  a   ---  Virt.   12 beta  a        0.34921
     Occ.   10 beta  a   ---  Virt.   13 beta  a        0.06836
     Occ.   10 beta  a   ---  Virt.   19 beta  a       -0.09149
  ----------------------------------------------------------------------------
  Root  10         a              0.298878879 a.u.                8.1329 eV 
  <S2> =   0.8198
  ----------------------------------------------------------------------------
     Transition Moments    X -0.00000   Y  0.00000   Z -0.06279
     Transition Moments   XX  0.01927  XY -0.00658  XZ  0.00000
     Transition Moments   YY  0.05143  YZ -0.00000  ZZ  0.10266
     Dipole Oscillator Strength                    0.0007856724
     Electric Quadrupole                           0.0000000003
     Magnetic Dipole                               0.0000000000
     Total Oscillator Strength                     0.0007856727

     Occ.   10 alpha a   ---  Virt.   14 alpha a        0.56679
     Occ.   10 alpha a   ---  Virt.   15 alpha a       -0.53912
     Occ.   11 alpha a   ---  Virt.   16 alpha a       -0.10525
     Occ.   11 alpha a   ---  Virt.   17 alpha a        0.51873
     Occ.    8 beta  a   ---  Virt.   11 beta  a        0.05554
     Occ.   10 beta  a   ---  Virt.   15 beta  a       -0.08603
     Occ.   10 beta  a   ---  Virt.   16 beta  a        0.29626

              Target root =      1
          Target symmetry = none
      Ground state energy =   -167.933573876324
        Excitation energy =      0.010030266274
     Excited state energy =   -167.923543610049

  stored tddft:energy   -167.92354361004914     

 Task  times  cpu:      227.8s     wall:      261.6s


                                NWChem Input Module
                                -------------------


 Summary of allocated global arrays
-----------------------------------
  No active global arrays


MA_summarize_allocated_blocks: starting scan ...
heap block 'gridpts', handle 112, address 0x13628928:
	type of elements:		double precision
	number of elements:		104750309
	address of client space:	0x13628980
	index for client space:		12496007
	total number of bytes:		838002568
MA_summarize_allocated_blocks: scan completed: 1 heap block, 0 stack blocks
MA usage statistics:

	allocation statistics:
					      heap	     stack
					      ----	     -----
	current number of blocks	         1	         0
	maximum number of blocks	        18	        53
	current total bytes		 838002568	         0
	maximum total bytes		 838404168	  23867576
	maximum total K-bytes		    838405	     23868
	maximum total M-bytes		       839	        24


                                     CITATION
                                     --------
                Please cite the following reference when publishing
                           results obtained with NWChem:

          E. Apra, E. J. Bylaska, W. A. de Jong, N. Govind, K. Kowalski,
       T. P. Straatsma, M. Valiev, H. J. J. van Dam, Y. Alexeev, J. Anchell,
       V. Anisimov, F. W. Aquino, R. Atta-Fynn, J. Autschbach, N. P. Bauman,
     J. C. Becca, D. E. Bernholdt, K. Bhaskaran-Nair, S. Bogatko, P. Borowski,
         J. Boschen, J. Brabec, A. Bruner, E. Cauet, Y. Chen, G. N. Chuev,
      C. J. Cramer, J. Daily, M. J. O. Deegan, T. H. Dunning Jr., M. Dupuis,
   K. G. Dyall, G. I. Fann, S. A. Fischer, A. Fonari, H. Fruchtl, L. Gagliardi,
      J. Garza, N. Gawande, S. Ghosh, K. Glaesemann, A. W. Gotz, J. Hammond,
       V. Helms, E. D. Hermes, K. Hirao, S. Hirata, M. Jacquelin, L. Jensen,
   B. G. Johnson, H. Jonsson, R. A. Kendall, M. Klemm, R. Kobayashi, V. Konkov,
      S. Krishnamoorthy, M. Krishnan, Z. Lin, R. D. Lins, R. J. Littlefield,
      A. J. Logsdail, K. Lopata, W. Ma, A. V. Marenich, J. Martin del Campo,
   D. Mejia-Rodriguez, J. E. Moore, J. M. Mullin, T. Nakajima, D. R. Nascimento,
    J. A. Nichols, P. J. Nichols, J. Nieplocha, A. Otero-de-la-Roza, B. Palmer,
    A. Panyala, T. Pirojsirikul, B. Peng, R. Peverati, J. Pittner, L. Pollack,
   R. M. Richard, P. Sadayappan, G. C. Schatz, W. A. Shelton, D. W. Silverstein,
   D. M. A. Smith, T. A. Soares, D. Song, M. Swart, H. L. Taylor, G. S. Thomas,
            V. Tipparaju, D. G. Truhlar, K. Tsemekhman, T. Van Voorhis,
      A. Vazquez-Mayagoitia, P. Verma, O. Villa, A. Vishnu, K. D. Vogiatzis,
        D. Wang, J. H. Weare, M. J. Williamson, T. L. Windus, K. Wolinski,
        A. T. Wong, Q. Wu, C. Yang, Q. Yu, M. Zacharias, Z. Zhang, Y. Zhao,
                                and R. J. Harrison
                        "NWChem: Past, present, and future
                         J. Chem. Phys. 152, 184102 (2020)
                               doi:10.1063/5.0004997

                                      AUTHORS
                                      -------
  E. Apra, E. J. Bylaska, N. Govind, K. Kowalski, M. Valiev, D. Mejia-Rodriguez,
       A. Kunitsa, N. P. Bauman, A. Panyala, W. A. de Jong, T. P. Straatsma,
   H. J. J. van Dam, D. Wang, T. L. Windus, J. Hammond, J. Autschbach, A. Woods,
    K. Bhaskaran-Nair, J. Brabec, K. Lopata, S. A. Fischer, S. Krishnamoorthy,
     M. Jacquelin, W. Ma, M. Klemm, O. Villa, Y. Chen, V. Anisimov, F. Aquino,
     S. Hirata, M. T. Hackler, E. Hermes, L. Jensen, J. E. Moore, J. C. Becca,
      V. Konjkov, T. Risthaus, M. Malagoli, A. Marenich, A. Otero-de-la-Roza,
        J. Mullin, P. Nichols, R. Peverati, J. Pittner, Y. Zhao, P.-D. Fan,
        A. Fonari, M. J. Williamson, R. J. Harrison, J. R. Rehr, M. Dupuis,
     D. Silverstein, D. M. A. Smith, J. Nieplocha, V. Tipparaju, M. Krishnan,
     B. E. Van Kuiken, A. Vazquez-Mayagoitia, M. Swart, Q. Wu, T. Van Voorhis,
     A. A. Auer, M. Nooijen, L. D. Crosby, E. Brown, G. Cisneros, G. I. Fann,
   H. Fruchtl, J. Garza, K. Hirao, R. A. Kendall, J. A. Nichols, K. Tsemekhman,
    K. Wolinski, J. Anchell, D. E. Bernholdt, P. Borowski, T. Clark, D. Clerc,
   H. Dachsel, M. J. O. Deegan, K. Dyall, D. Elwood, E. Glendening, M. Gutowski,
   A. C. Hess, J. Jaffe, B. G. Johnson, J. Ju, R. Kobayashi, R. Kutteh, Z. Lin,
   R. Littlefield, X. Long, B. Meng, T. Nakajima, S. Niu, L. Pollack, M. Rosing,
   K. Glaesemann, G. Sandrone, M. Stave, H. Taylor, G. Thomas, J. H. van Lenthe,
                               A. T. Wong, Z. Zhang.

 Total times  cpu:      227.8s     wall:      261.9s
