 argument  1 = /home/aditisingh4812/nw_chem/nwchem-run/nwchem-run/tddft/open/gdd_open/geom-MOL/nh2.nw
                                         
                                         


             Northwest Computational Chemistry Package (NWChem) 7.2.3
             --------------------------------------------------------


                    Environmental Molecular Sciences Laboratory
                       Pacific Northwest National Laboratory
                                Richland, WA 99352

                              Copyright (c) 1994-2022
                       Pacific Northwest National Laboratory
                            Battelle Memorial Institute

             NWChem is an open-source computational chemistry package
                        distributed under the terms of the
                      Educational Community License (ECL) 2.0
             A copy of the license is included with this distribution
                              in the LICENSE.TXT file

                                  ACKNOWLEDGMENT
                                  --------------

            This software and its documentation were developed at the
            EMSL at Pacific Northwest National Laboratory, a multiprogram
            national laboratory, operated for the U.S. Department of Energy
            by Battelle under Contract Number DE-AC05-76RL01830. Support
            for this work was provided by the Department of Energy Office
            of Biological and Environmental Research, Office of Basic
            Energy Sciences, and the Office of Advanced Scientific Computing.


           Job information
           ---------------

    hostname        = p17
    program         = /home/aditisingh4812/nw_chem/nwchem-7.2.3-release.revision-d690e065-srconly.2024-08-27/nwchem-7.2.3/bin/LINUX64/nwchem
    date            = Thu May  8 12:14:56 2025

    compiled        = Mon_Apr_07_18:51:54_2025
    source          = /home/aditisingh4812/nw_chem/nwchem-7.2.3-release.revision-d690e065-srconly.2024-08-27/nwchem-7.2.3
    nwchem branch   = 7.2.3
    nwchem revision = d690e065
    ga revision     = 5.8.0
    use scalapack   = F
    input           = /home/aditisingh4812/nw_chem/nwchem-run/nwchem-run/tddft/open/gdd_open/geom-MOL/nh2.nw
    prefix          = nh2.
    data base       = ./nh2.db
    status          = startup
    nproc           =       72
    time left       =     -1s



           Memory information
           ------------------

    heap     =  262143998 doubles =   2000.0 Mbytes
    stack    =  262143995 doubles =   2000.0 Mbytes
    global   =  655360000 doubles =   5000.0 Mbytes (distinct from heap & stack)
    total    = 1179647993 doubles =   9000.0 Mbytes
    verify   = yes
    hardfail = no 


           Directory information
           ---------------------

  0 permanent = .
  0 scratch   = .




                                NWChem Input Module
                                -------------------



 Scaling coordinates for geometry "geometry" by  1.889725989
 (inverse scale =  0.529177249)



                             Geometry "geometry" -> ""
                             -------------------------

 Output coordinates in angstroms (scale by  1.889725989 to convert to a.u.)

  No.       Tag          Charge          X              Y              Z
 ---- ---------------- ---------- -------------- -------------- --------------
    1 N                    7.0000     0.00000000     0.00000000     0.07473311
    2 H                    1.0000    -0.42445300     0.00000000    -0.26156589
    3 H                    1.0000     0.42445300     0.00000000    -0.26156589

      Atomic Mass 
      ----------- 

      N                 14.003070
      H                  1.007825


 Effective nuclear repulsion energy (a.u.)      14.3039508519

            Nuclear Dipole moment (a.u.) 
            ----------------------------
        X                 Y               Z
 ---------------- ---------------- ----------------
     0.0000000000     0.0000000000     0.0000000000


            XYZ format geometry
            -------------------
     3
 geometry
 N                     0.00000000     0.00000000     0.07473311
 H                    -0.42445300     0.00000000    -0.26156589
 H                     0.42445300     0.00000000    -0.26156589

 ==============================================================================
                                internuclear distances
 ------------------------------------------------------------------------------
       center one      |      center two      | atomic units |  angstroms
 ------------------------------------------------------------------------------
    2 H                |   1 N                |     1.02335  |     0.54153
    3 H                |   1 N                |     1.02335  |     0.54153
 ------------------------------------------------------------------------------
                         number of included internuclear distances:          2
 ==============================================================================



 ==============================================================================
                                 internuclear angles
 ------------------------------------------------------------------------------
        center 1       |       center 2       |       center 3       |  degrees
 ------------------------------------------------------------------------------
    2 H                |   1 N                |   3 H                |   103.22
 ------------------------------------------------------------------------------
                            number of included internuclear angles:          1
 ==============================================================================





 Summary of "ao basis" -> "" (cartesian)
 ------------------------------------------------------------------------------
       Tag                 Description            Shells   Functions and Types
 ---------------- ------------------------------  ------  ---------------------
 *                         def2-TZVPD                 on all atoms 


  pbe96 is a nonlocal functional; adding pw91lda local functional. 

                                 NWChem DFT Module
                                 -----------------


                      Basis "ao basis" -> "ao basis" (cartesian)
                      -----
  N (Nitrogen)
  ------------
            Exponent  Coefficients 
       -------------- ---------------------------------------------------------
  1 S  1.97308006E+04  0.000219
  1 S  2.95789587E+03  0.001696
  1 S  6.73221336E+02  0.008795
  1 S  1.90682495E+02  0.035359
  1 S  6.22954419E+01  0.110958
  1 S  2.26541612E+01  0.249830

  2 S  8.97914774E+00  0.406239
  2 S  3.68630024E+00  0.243382

  3 S  8.46600768E-01  1.000000

  4 S  3.36471338E-01  1.000000

  5 S  1.36476537E-01  1.000000

  6 S  6.84416058E-02  1.000000

  7 P  4.92003805E+01  0.005555
  7 P  1.13467905E+01  0.038052
  7 P  3.42739724E+00  0.149537
  7 P  1.17855251E+00  0.349493

  8 P  4.16422050E-01  1.000000

  9 P  1.42608260E-01  1.000000

 10 D  1.65400000E+00  1.000000

 11 D  4.69000000E-01  1.000000

 12 D  1.28296421E-01  1.000000

 13 F  1.09300000E+00  1.000000

  H (Hydrogen)
  ------------
            Exponent  Coefficients 
       -------------- ---------------------------------------------------------
  1 S  3.40613410E+01  0.006025
  1 S  5.12357460E+00  0.045021
  1 S  1.16466260E+00  0.201897

  2 S  3.27230410E-01  1.000000

  3 S  1.03072410E-01  1.000000

  4 P  8.00000000E-01  1.000000

  5 P  9.57741296E-02  1.000000



 Summary of "ao basis" -> "ao basis" (cartesian)
 ------------------------------------------------------------------------------
       Tag                 Description            Shells   Functions and Types
 ---------------- ------------------------------  ------  ---------------------
 N                         def2-TZVPD               13       43   6s3p3d1f
 H                         def2-TZVPD                5        9   3s2p




 Summary of "ao basis" -> "ao basis" (cartesian)
 ------------------------------------------------------------------------------
       Tag                 Description            Shells   Functions and Types
 ---------------- ------------------------------  ------  ---------------------
 N                         def2-TZVPD               13       43   6s3p3d1f
 H                         def2-TZVPD                5        9   3s2p


  int_init: cando_txs set to always be  F
  Caching 1-el integrals 

            General Information
            -------------------
          SCF calculation type: DFT
          Wavefunction type:  spin polarized.
          No. of atoms     :     3
          No. of electrons :     9
           Alpha electrons :     5
            Beta electrons :     4
          Charge           :     0
          Spin multiplicity:     2
          Use of symmetry is: off; symmetry adaption is: off
          Maximum number of iterations:  50
          AO basis - number of functions:    61
                     number of shells:    23
          Convergence on energy requested:  1.00D-06
          Convergence on density requested:  1.00D-05
          Convergence on gradient requested:  5.00D-04

              XC Information
              --------------
                     Hartree-Fock (Exact) Exchange  1.000          
                     LC-wPBE(h)Exchange Functional  1.000          
            Perdew 1991 LDA Correlation Functional  1.000 local    
           PerdewBurkeErnz. Correlation Functional  1.000 non-local

           Range-Separation Parameters        
           ---------------------------
           Alpha           :  0.00
           Beta            :  1.00
           Gamma           :  0.37
           Short-Range HF  :     F

             Grid Information
             ----------------
          Grid used for XC integration:  xfine     
          Radial quadrature: Mura-Knowles        
          Angular quadrature: Lebedev. 
          Tag              B.-S. Rad. Rad. Pts. Rad. Cut. Ang. Pts.
          ---              ---------- --------- --------- ---------
          N                   0.65      100           7.0      1454
          H                   0.35      100           7.0      1202
          Grid pruning is: on 
          Number of quadrature shells:   300
          Spatial weights used:  Erf1

          Convergence Information
          -----------------------
          Convergence aids based upon iterative change in 
          total energy or number of iterations. 
          Levelshifting, if invoked, occurs when the 
          HOMO/LUMO gap drops below (HL_TOL):  1.00D-02
          DIIS, if invoked, will attempt to extrapolate 
          using up to (NFOCK): 10 stored Fock matrices.

                    Damping( 0%)  Levelshifting(0.5)       DIIS
                  --------------- ------------------- ---------------
          dE  on:    start            ASAP                start   
          dE off:    2 iters         50 iters            50 iters 


      Screening Tolerance Information
      -------------------------------
          Density screening/tol_rho:  1.00D-10
          AO Gaussian exp screening on grid/accAOfunc:  14
          CD Gaussian exp screening on grid/accCDfunc:  20
          XC Gaussian exp screening on grid/accXCfunc:  20
          Schwarz screening/accCoul:  1.00D-08

  
  CAM type calculations without CDFIT are
  only available with the direct option.
  Forcing Direct SCF
  

      Superposition of Atomic Density Guess
      -------------------------------------

 Sum of atomic energies:         -55.31117479

      Non-variational initial energy
      ------------------------------

 Total energy =     -55.322190
 1-e energy   =     -97.500809
 2-e energy   =      27.874668
 HOMO         =      -0.519457
 LUMO         =       0.056713

  WARNING: movecs_in_org=atomic not equal to movecs_in=./nh2.movecs
   Time after variat. SCF:      0.5
   Time prior to 1st pass:      0.5

 Grid_pts file          = ./nh2.gridpts.00
 Record size in doubles =  12289        No. of grid_pts per rec  =   3070
 Max. records in memory =      4        Max. recs in file   =  14072920

 Grid integrated density:       9.000000702943
 Requested integration accuracy:   0.10E-07

           Memory utilization after 1st SCF pass: 
           Heap Space remaining (MW):      157.34           157341526
          Stack Space remaining (MW):      262.14           262143348

   convergence    iter        energy       DeltaE   RMS-Dens  Diis-err    time
 ---------------- ----- ----------------- --------- --------- ---------  ------
 d= 0,ls=0.0,diis     1    -54.5691785037 -6.89D+01  8.78D-03  1.68D-01     0.9
                                                     9.19D-03  1.49D-01
 Grid integrated density:       9.000000503902
 Requested integration accuracy:   0.10E-07
 d= 0,ls=0.0,diis     2    -54.5972196609 -2.80D-02  2.51D-03  3.29D-02     1.2
                                                     2.27D-03  2.55D-02
 Grid integrated density:       9.000000549478
 Requested integration accuracy:   0.10E-07
 d= 0,ls=0.0,diis     3    -54.6051219273 -7.90D-03  5.77D-04  8.29D-04     1.6
                                                     5.87D-04  8.10D-04
 Grid integrated density:       9.000000538526
 Requested integration accuracy:   0.10E-07
 d= 0,ls=0.0,diis     4    -54.6054530490 -3.31D-04  1.36D-04  1.23D-05     1.9
                                                     1.41D-04  9.44D-06
 Grid integrated density:       9.000000537814
 Requested integration accuracy:   0.10E-07
 d= 0,ls=0.0,diis     5    -54.6054642368 -1.12D-05  2.57D-05  3.21D-07     2.3
                                                     3.93D-05  4.18D-07
 Grid integrated density:       9.000000537734
 Requested integration accuracy:   0.10E-07
 d= 0,ls=0.0,diis     6    -54.6054647659 -5.29D-07  6.82D-06  1.83D-08     2.6
                                                     1.50D-05  2.88D-08
 Grid integrated density:       9.000000537761
 Requested integration accuracy:   0.10E-07
 d= 0,ls=0.0,diis     7    -54.6054648086 -4.27D-08  1.08D-06  1.36D-09     3.0
                                                     4.85D-06  9.72D-10


         Total DFT energy =      -54.605464808562
      One electron energy =     -100.032880197516
           Coulomb energy =       39.318234439819
    Exchange-Corr. energy =       -8.194769902778
 Nuclear repulsion energy =       14.303950851914

 Numeric. integr. density =        9.000000537761

     Total iterative time =      2.5s



                    DFT Final Alpha Molecular Orbital Analysis
                    ------------------------------------------

 Vector    1  Occ=1.000000D+00  E=-1.416145D+01
              MO Center=  2.0D-11,  6.0D-12,  7.4D-02, r^2= 2.0D-02
   Bfn.  Coefficient  Atom+Function         Bfn.  Coefficient  Atom+Function  
  ----- ------------  ---------------      ----- ------------  ---------------
     2      0.615394  1 N  s                  1      0.448153  1 N  s          
     4     -0.151974  1 N  s                  3      0.131511  1 N  s          
    25      0.032806  1 N  dyy               22      0.031839  1 N  dxx        
    27      0.031465  1 N  dzz        

 Vector    2  Occ=1.000000D+00  E=-1.216407D+00
              MO Center=  1.7D-10,  5.4D-10, -2.1D-01, r^2= 4.0D-01
   Bfn.  Coefficient  Atom+Function         Bfn.  Coefficient  Atom+Function  
  ----- ------------  ---------------      ----- ------------  ---------------
     3      0.483977  1 N  s                  5     -0.385940  1 N  s          
     4     -0.321117  1 N  s                 46      0.249693  2 H  s          
    55      0.249693  3 H  s                  2     -0.234808  1 N  s          
    44      0.216374  2 H  s                 53      0.216374  3 H  s          
    45      0.193745  2 H  s                 54      0.193745  3 H  s          

 Vector    3  Occ=1.000000D+00  E=-7.712796D-01
              MO Center= -1.6D-10, -1.3D-10, -5.8D-02, r^2= 5.1D-01
   Bfn.  Coefficient  Atom+Function         Bfn.  Coefficient  Atom+Function  
  ----- ------------  ---------------      ----- ------------  ---------------
     7      0.467813  1 N  px                45     -0.245801  2 H  s          
    54      0.245801  3 H  s                 46     -0.239903  2 H  s          
    55      0.239903  3 H  s                 44     -0.221401  2 H  s          
    53      0.221401  3 H  s                 10      0.214003  1 N  px         
    18     -0.062848  1 N  dxz               39     -0.039190  1 N  fxzz       

 Vector    4  Occ=1.000000D+00  E=-4.775415D-01
              MO Center= -2.4D-10,  1.9D-09,  2.2D-02, r^2= 7.4D-01
   Bfn.  Coefficient  Atom+Function         Bfn.  Coefficient  Atom+Function  
  ----- ------------  ---------------      ----- ------------  ---------------
     8      0.482957  1 N  py                11      0.422085  1 N  py         
    14      0.236558  1 N  py                26     -0.057114  1 N  dyz        
    20     -0.040834  1 N  dyz        

 Vector    5  Occ=1.000000D+00  E=-4.744467D-01
              MO Center= -1.8D-10, -4.6D-09,  3.8D-01, r^2= 6.6D-01
   Bfn.  Coefficient  Atom+Function         Bfn.  Coefficient  Atom+Function  
  ----- ------------  ---------------      ----- ------------  ---------------
     4      0.476240  1 N  s                  9      0.424718  1 N  pz         
    12      0.315561  1 N  pz                 5      0.312337  1 N  s          
    15      0.157638  1 N  pz                 6      0.125052  1 N  s          
    46     -0.095458  2 H  s                 55     -0.095458  3 H  s          
    45     -0.092499  2 H  s                 54     -0.092499  3 H  s          

 Vector    6  Occ=0.000000D+00  E= 7.184969D-02
              MO Center=  2.3D-08,  1.8D-10, -7.7D-01, r^2= 7.1D+00
   Bfn.  Coefficient  Atom+Function         Bfn.  Coefficient  Atom+Function  
  ----- ------------  ---------------      ----- ------------  ---------------
     5      9.997816  1 N  s                 46     -7.571511  2 H  s          
    55     -7.571512  3 H  s                  6      6.264801  1 N  s          
    52     -1.449985  2 H  pz                61     -1.449985  3 H  pz         
    50     -0.815849  2 H  px                59      0.815849  3 H  px         
    15     -0.718371  1 N  pz                28      0.613286  1 N  dxx        

 Vector    7  Occ=0.000000D+00  E= 1.528060D-01
              MO Center= -8.2D-08, -2.0D-10, -6.9D-01, r^2= 6.8D+00
   Bfn.  Coefficient  Atom+Function         Bfn.  Coefficient  Atom+Function  
  ----- ------------  ---------------      ----- ------------  ---------------
    46     15.530093  2 H  s                 55    -15.530099  3 H  s          
    50      4.264793  2 H  px                59      4.264794  3 H  px         
    52      1.144645  2 H  pz                61     -1.144646  3 H  pz         
    13      0.727874  1 N  px                45     -0.501648  2 H  s          
    54      0.501648  3 H  s                 30      0.440753  1 N  dxz        

 Vector    8  Occ=0.000000D+00  E= 1.756399D-01
              MO Center=  2.5D-08, -1.7D-09, -4.6D-02, r^2= 7.3D+00
   Bfn.  Coefficient  Atom+Function         Bfn.  Coefficient  Atom+Function  
  ----- ------------  ---------------      ----- ------------  ---------------
     5     23.304662  1 N  s                 46    -14.792769  2 H  s          
    55    -14.792769  3 H  s                 28      4.422606  1 N  dxx        
    31      3.984238  1 N  dyy               52     -3.479205  2 H  pz         
    61     -3.479205  3 H  pz                33      3.269697  1 N  dzz        
    50     -1.627358  2 H  px                59      1.627358  3 H  px         

 Vector    9  Occ=0.000000D+00  E= 1.905229D-01
              MO Center= -2.7D-10,  8.8D-10, -4.4D-01, r^2= 6.0D+00
   Bfn.  Coefficient  Atom+Function         Bfn.  Coefficient  Atom+Function  
  ----- ------------  ---------------      ----- ------------  ---------------
    14      1.975813  1 N  py                51     -1.322633  2 H  py         
    60     -1.322633  3 H  py                32     -0.513533  1 N  dyz        
    11     -0.316085  1 N  py                 8      0.204734  1 N  py         
    40      0.093976  1 N  fyyy              42      0.081507  1 N  fyzz       
    35      0.078044  1 N  fxxy              26      0.057724  1 N  dyz        

 Vector   10  Occ=0.000000D+00  E= 2.513078D-01
              MO Center=  2.9D-08,  1.7D-10, -4.8D-01, r^2= 6.7D+00
   Bfn.  Coefficient  Atom+Function         Bfn.  Coefficient  Atom+Function  
  ----- ------------  ---------------      ----- ------------  ---------------
     6      4.083863  1 N  s                 46     -3.814524  2 H  s          
    55     -3.814533  3 H  s                 50      2.878221  2 H  px         
    59     -2.878220  3 H  px                28      1.459998  1 N  dxx        
     5      1.138567  1 N  s                 52     -0.617414  2 H  pz         
    61     -0.617416  3 H  pz                33     -0.220643  1 N  dzz        

 Vector   11  Occ=0.000000D+00  E= 2.533086D-01
              MO Center=  7.6D-10, -4.1D-09, -6.0D-01, r^2= 6.4D+00
   Bfn.  Coefficient  Atom+Function         Bfn.  Coefficient  Atom+Function  
  ----- ------------  ---------------      ----- ------------  ---------------
    51      3.939057  2 H  py                60     -3.939057  3 H  py         
    29      1.819574  1 N  dxy               23     -0.211830  1 N  dxy        
    38      0.054603  1 N  fxyz              48     -0.030369  2 H  py         
    57      0.030369  3 H  py         

 Vector   12  Occ=0.000000D+00  E= 2.577417D-01
              MO Center= -4.4D-08,  3.6D-09, -7.8D-02, r^2= 6.6D+00
   Bfn.  Coefficient  Atom+Function         Bfn.  Coefficient  Atom+Function  
  ----- ------------  ---------------      ----- ------------  ---------------
    46     12.133605  2 H  s                 55    -12.133603  3 H  s          
    52      3.821579  2 H  pz                61     -3.821578  3 H  pz         
    13      2.942352  1 N  px                50      1.882910  2 H  px         
    59      1.882911  3 H  px                30      0.651946  1 N  dxz        
    45      0.323095  2 H  s                 54     -0.323095  3 H  s          

 Vector   13  Occ=0.000000D+00  E= 2.756470D-01
              MO Center=  4.8D-08,  1.8D-09, -4.4D-01, r^2= 7.1D+00
   Bfn.  Coefficient  Atom+Function         Bfn.  Coefficient  Atom+Function  
  ----- ------------  ---------------      ----- ------------  ---------------
     5     59.528230  1 N  s                 46    -40.495152  2 H  s          
    55    -40.495158  3 H  s                  6      9.745821  1 N  s          
    28      7.929842  1 N  dxx               33      6.444523  1 N  dzz        
    31      6.374093  1 N  dyy               52     -6.097979  2 H  pz         
    61     -6.097979  3 H  pz                15     -5.289573  1 N  pz         

 Vector   14  Occ=0.000000D+00  E= 3.755104D-01
              MO Center= -8.3D-08, -1.8D-08,  2.7D-01, r^2= 5.5D+00
   Bfn.  Coefficient  Atom+Function         Bfn.  Coefficient  Atom+Function  
  ----- ------------  ---------------      ----- ------------  ---------------
     5     14.410502  1 N  s                 46     -9.386196  2 H  s          
    55     -9.386203  3 H  s                  6     -4.726385  1 N  s          
    33      4.653082  1 N  dzz               28      4.390937  1 N  dxx        
    31      3.492750  1 N  dyy               15     -2.057844  1 N  pz         
     3      0.997167  1 N  s                 52     -0.988437  2 H  pz         

 Vector   15  Occ=0.000000D+00  E= 3.877513D-01
              MO Center= -2.4D-09,  9.4D-09,  4.2D-01, r^2= 3.8D+00
   Bfn.  Coefficient  Atom+Function         Bfn.  Coefficient  Atom+Function  
  ----- ------------  ---------------      ----- ------------  ---------------
    32      1.828304  1 N  dyz               26     -0.151438  1 N  dyz        
    51      0.148487  2 H  py                60      0.148487  3 H  py         
    14     -0.071867  1 N  py                35      0.066426  1 N  fxxy       
    48     -0.064104  2 H  py                57     -0.064104  3 H  py         
    20      0.045343  1 N  dyz               42      0.033543  1 N  fyzz       

 Vector   16  Occ=0.000000D+00  E= 4.089995D-01
              MO Center=  1.6D-08, -1.3D-09, -4.4D-01, r^2= 6.6D+00
   Bfn.  Coefficient  Atom+Function         Bfn.  Coefficient  Atom+Function  
  ----- ------------  ---------------      ----- ------------  ---------------
    46     56.561769  2 H  s                 55    -56.561772  3 H  s          
    50     11.579544  2 H  px                59     11.579545  3 H  px         
    13      7.198749  1 N  px                30     -2.433447  1 N  dxz        
    52      0.377512  2 H  pz                61     -0.377512  3 H  pz         
    10     -0.327604  1 N  px                45      0.328136  2 H  s          

 Vector   17  Occ=0.000000D+00  E= 4.956463D-01
              MO Center= -3.6D-08,  3.3D-09,  1.4D-01, r^2= 5.5D+00
   Bfn.  Coefficient  Atom+Function         Bfn.  Coefficient  Atom+Function  
  ----- ------------  ---------------      ----- ------------  ---------------
     5     55.619751  1 N  s                 46    -36.340629  2 H  s          
    55    -36.340623  3 H  s                 31     10.385644  1 N  dyy        
    28      8.733147  1 N  dxx               33      8.366384  1 N  dzz        
    50     -6.082431  2 H  px                59      6.082429  3 H  px         
    52     -6.010270  2 H  pz                61     -6.010269  3 H  pz         

 Vector   18  Occ=0.000000D+00  E= 5.298121D-01
              MO Center=  3.7D-08,  3.2D-09, -1.2D-01, r^2= 4.9D+00
   Bfn.  Coefficient  Atom+Function         Bfn.  Coefficient  Atom+Function  
  ----- ------------  ---------------      ----- ------------  ---------------
    30      5.212990  1 N  dxz               46     -4.980695  2 H  s          
    55      4.980691  3 H  s                 52      4.166510  2 H  pz         
    61     -4.166511  3 H  pz                45     -2.196857  2 H  s          
    54      2.196857  3 H  s                 13     -1.892596  1 N  px         
    10     -0.838553  1 N  px                50     -0.591033  2 H  px         

 Vector   19  Occ=0.000000D+00  E= 5.699816D-01
              MO Center= -4.6D-09, -5.5D-09,  1.2D-02, r^2= 4.5D+00
   Bfn.  Coefficient  Atom+Function         Bfn.  Coefficient  Atom+Function  
  ----- ------------  ---------------      ----- ------------  ---------------
    29      4.899050  1 N  dxy               51      4.805858  2 H  py         
    60     -4.805858  3 H  py                23     -0.255896  1 N  dxy        
    48     -0.104651  2 H  py                57      0.104651  3 H  py         
    38      0.097064  1 N  fxyz              17      0.055896  1 N  dxy        

 Vector   20  Occ=0.000000D+00  E= 5.836634D-01
              MO Center=  1.1D-07, -8.6D-12, -2.7D-01, r^2= 4.4D+00
   Bfn.  Coefficient  Atom+Function         Bfn.  Coefficient  Atom+Function  
  ----- ------------  ---------------      ----- ------------  ---------------
     5     22.111541  1 N  s                 46    -17.659389  2 H  s          
    55    -17.659388  3 H  s                 28      7.188500  1 N  dxx        
    31      3.572244  1 N  dyy               52     -3.454334  2 H  pz         
    61     -3.454334  3 H  pz                 6      2.862643  1 N  s          
    33      2.233135  1 N  dzz               50      1.385797  2 H  px         

 Vector   21  Occ=0.000000D+00  E= 6.709871D-01
              MO Center=  7.5D-09,  3.6D-09, -2.1D-01, r^2= 3.9D+00
   Bfn.  Coefficient  Atom+Function         Bfn.  Coefficient  Atom+Function  
  ----- ------------  ---------------      ----- ------------  ---------------
    14      4.203315  1 N  py                11     -1.594282  1 N  py         
    51     -1.513948  2 H  py                60     -1.513948  3 H  py         
    32     -1.070360  1 N  dyz                8     -0.255878  1 N  py         
    40      0.246831  1 N  fyyy              42      0.221903  1 N  fyzz       
    35      0.198348  1 N  fxxy              26      0.077501  1 N  dyz        

 Vector   22  Occ=0.000000D+00  E= 7.219701D-01
              MO Center=  3.3D-07,  4.2D-09, -1.2D-01, r^2= 4.9D+00
   Bfn.  Coefficient  Atom+Function         Bfn.  Coefficient  Atom+Function  
  ----- ------------  ---------------      ----- ------------  ---------------
     5     70.309113  1 N  s                 46    -46.359416  2 H  s          
    55    -46.359461  3 H  s                  6     11.134768  1 N  s          
    15     -9.468590  1 N  pz                28      9.364225  1 N  dxx        
    31      7.028072  1 N  dyy               33      6.583403  1 N  dzz        
    52     -5.911275  2 H  pz                61     -5.911278  3 H  pz         

 Vector   23  Occ=0.000000D+00  E= 7.309007D-01
              MO Center= -3.8D-07,  3.9D-09,  5.4D-01, r^2= 3.8D+00
   Bfn.  Coefficient  Atom+Function         Bfn.  Coefficient  Atom+Function  
  ----- ------------  ---------------      ----- ------------  ---------------
    46     46.509869  2 H  s                 55    -46.509820  3 H  s          
    13     12.128317  1 N  px                50      7.481714  2 H  px         
    59      7.481710  3 H  px                45      3.518257  2 H  s          
    54     -3.518254  3 H  s                 30     -2.419938  1 N  dxz        
    52      2.370851  2 H  pz                61     -2.370844  3 H  pz         

 Vector   24  Occ=0.000000D+00  E= 1.003680D+00
              MO Center=  1.1D-08, -4.9D-09,  6.7D-01, r^2= 3.2D+00
   Bfn.  Coefficient  Atom+Function         Bfn.  Coefficient  Atom+Function  
  ----- ------------  ---------------      ----- ------------  ---------------
     5     24.628920  1 N  s                 46    -21.904635  2 H  s          
    55    -21.904634  3 H  s                 31      8.831325  1 N  dyy        
    28      8.192424  1 N  dxx               33      8.034297  1 N  dzz        
    45      4.366769  2 H  s                 54      4.366769  3 H  s          
     6     -3.942029  1 N  s                 52     -3.042502  2 H  pz         

 Vector   25  Occ=0.000000D+00  E= 1.028684D+00
              MO Center= -5.9D-08, -3.5D-10, -1.1D-01, r^2= 3.0D+00
   Bfn.  Coefficient  Atom+Function         Bfn.  Coefficient  Atom+Function  
  ----- ------------  ---------------      ----- ------------  ---------------
     5     28.410380  1 N  s                 46    -19.692221  2 H  s          
    55    -19.692221  3 H  s                 28      7.192147  1 N  dxx        
    45     -6.806543  2 H  s                 54     -6.806543  3 H  s          
     4      5.568953  1 N  s                 15     -5.349013  1 N  pz         
    33      5.353939  1 N  dzz               31      4.643202  1 N  dyy        

 Vector   26  Occ=0.000000D+00  E= 1.046361D+00
              MO Center=  5.6D-08, -5.1D-11, -4.0D-01, r^2= 2.7D+00
   Bfn.  Coefficient  Atom+Function         Bfn.  Coefficient  Atom+Function  
  ----- ------------  ---------------      ----- ------------  ---------------
    46     17.676368  2 H  s                 55    -17.676364  3 H  s          
    45     -6.397417  2 H  s                 54      6.397418  3 H  s          
    10     -4.145003  1 N  px                50      3.694489  2 H  px         
    59      3.694488  3 H  px                30      2.882769  1 N  dxz        
    52      2.343550  2 H  pz                61     -2.343550  3 H  pz         

 Vector   27  Occ=0.000000D+00  E= 1.303636D+00
              MO Center=  2.5D-10,  3.3D-10,  1.7D-01, r^2= 1.6D+00
   Bfn.  Coefficient  Atom+Function         Bfn.  Coefficient  Atom+Function  
  ----- ------------  ---------------      ----- ------------  ---------------
    26      2.246978  1 N  dyz               32     -1.119918  1 N  dyz        
    14      0.393596  1 N  py                42     -0.217181  1 N  fyzz       
    48      0.202149  2 H  py                57      0.202149  3 H  py         
    35     -0.190318  1 N  fxxy              51     -0.179012  2 H  py         
    60     -0.179012  3 H  py                11     -0.165973  1 N  py         

 Vector   28  Occ=0.000000D+00  E= 1.391576D+00
              MO Center= -1.4D-09,  6.6D-10,  1.2D-01, r^2= 1.9D+00
   Bfn.  Coefficient  Atom+Function         Bfn.  Coefficient  Atom+Function  
  ----- ------------  ---------------      ----- ------------  ---------------
    29      3.134822  1 N  dxy               23     -2.441885  1 N  dxy        
    51      2.449993  2 H  py                60     -2.449993  3 H  py         
    38      0.402652  1 N  fxyz              48     -0.169040  2 H  py         
    57      0.169040  3 H  py                17     -0.082733  1 N  dxy        

 Vector   29  Occ=0.000000D+00  E= 1.413393D+00
              MO Center=  7.3D-09,  1.5D-09, -4.9D-02, r^2= 2.2D+00
   Bfn.  Coefficient  Atom+Function         Bfn.  Coefficient  Atom+Function  
  ----- ------------  ---------------      ----- ------------  ---------------
     5     36.595167  1 N  s                 46    -26.993612  2 H  s          
    55    -26.993611  3 H  s                 28      8.552598  1 N  dxx        
    31      6.252283  1 N  dyy               33      4.591761  1 N  dzz        
    52     -4.309534  2 H  pz                61     -4.309534  3 H  pz         
     6      3.147167  1 N  s                 15     -2.843201  1 N  pz         

 Vector   30  Occ=0.000000D+00  E= 1.608890D+00
              MO Center= -1.3D-09,  8.7D-11, -1.5D-01, r^2= 2.2D+00
   Bfn.  Coefficient  Atom+Function         Bfn.  Coefficient  Atom+Function  
  ----- ------------  ---------------      ----- ------------  ---------------
     5     44.151073  1 N  s                 46    -25.613068  2 H  s          
    55    -25.613067  3 H  s                  4      7.582070  1 N  s          
    45     -7.547525  2 H  s                 54     -7.547525  3 H  s          
    15     -7.325299  1 N  pz                 6      4.503544  1 N  s          
    28      4.348645  1 N  dxx               31      4.181960  1 N  dyy        

 Vector   31  Occ=0.000000D+00  E= 1.676785D+00
              MO Center= -4.2D-09, -6.4D-10,  2.4D-01, r^2= 2.1D+00
   Bfn.  Coefficient  Atom+Function         Bfn.  Coefficient  Atom+Function  
  ----- ------------  ---------------      ----- ------------  ---------------
    46     22.467731  2 H  s                 55    -22.467731  3 H  s          
    13      8.798542  1 N  px                45      7.206464  2 H  s          
    54     -7.206464  3 H  s                 24     -3.435486  1 N  dxz        
    50      3.066798  2 H  px                59      3.066798  3 H  px         
    10      1.926488  1 N  px                52      1.871788  2 H  pz         

 Vector   32  Occ=0.000000D+00  E= 1.921786D+00
              MO Center= -8.3D-10, -5.3D-09, -3.1D-02, r^2= 2.0D+00
   Bfn.  Coefficient  Atom+Function         Bfn.  Coefficient  Atom+Function  
  ----- ------------  ---------------      ----- ------------  ---------------
    11      4.096335  1 N  py                14     -3.490072  1 N  py         
     8     -1.124928  1 N  py                51      1.018628  2 H  py         
    60      1.018628  3 H  py                40     -0.930481  1 N  fyyy       
    42     -0.834535  1 N  fyzz              35     -0.776962  1 N  fxxy       
    32      0.771414  1 N  dyz               26     -0.515455  1 N  dyz        

 Vector   33  Occ=0.000000D+00  E= 2.067387D+00
              MO Center=  1.9D-10,  2.4D-09, -3.8D-01, r^2= 1.9D+00
   Bfn.  Coefficient  Atom+Function         Bfn.  Coefficient  Atom+Function  
  ----- ------------  ---------------      ----- ------------  ---------------
     5     15.248166  1 N  s                 46     -9.876805  2 H  s          
    55     -9.876805  3 H  s                 12      5.466575  1 N  pz         
     6      4.464541  1 N  s                 45      4.304490  2 H  s          
    54      4.304490  3 H  s                 22     -4.076601  1 N  dxx        
    27     -3.478237  1 N  dzz                3     -3.361727  1 N  s          

 Vector   34  Occ=0.000000D+00  E= 2.244295D+00
              MO Center= -3.2D-08, -3.8D-10, -2.1D-01, r^2= 1.8D+00
   Bfn.  Coefficient  Atom+Function         Bfn.  Coefficient  Atom+Function  
  ----- ------------  ---------------      ----- ------------  ---------------
    46     19.621976  2 H  s                 55    -19.621978  3 H  s          
    10     -7.721986  1 N  px                45     -6.387871  2 H  s          
    54      6.387871  3 H  s                 13      3.669336  1 N  px         
    50      3.411250  2 H  px                59      3.411250  3 H  px         
    24      2.210864  1 N  dxz               52      1.436100  2 H  pz         

 Vector   35  Occ=0.000000D+00  E= 2.294984D+00
              MO Center=  2.9D-08,  2.9D-09,  6.6D-01, r^2= 1.9D+00
   Bfn.  Coefficient  Atom+Function         Bfn.  Coefficient  Atom+Function  
  ----- ------------  ---------------      ----- ------------  ---------------
     5     20.768429  1 N  s                 46    -20.518327  2 H  s          
    55    -20.518324  3 H  s                  4     -8.857364  1 N  s          
    28      8.043996  1 N  dxx               31      7.737568  1 N  dyy        
    33      7.395184  1 N  dzz                3      5.511523  1 N  s          
    22      5.428955  1 N  dxx               25      5.076773  1 N  dyy        

 Vector   36  Occ=0.000000D+00  E= 2.417529D+00
              MO Center= -2.0D-10, -1.3D-09, -1.4D-01, r^2= 1.2D+00
   Bfn.  Coefficient  Atom+Function         Bfn.  Coefficient  Atom+Function  
  ----- ------------  ---------------      ----- ------------  ---------------
    46      9.083731  2 H  s                 55     -9.083730  3 H  s          
    13      2.135486  1 N  px                24      1.734510  1 N  dxz        
    30     -1.653600  1 N  dxz               50      1.584146  2 H  px         
    59      1.584146  3 H  px                49      1.575478  2 H  pz         
    58     -1.575478  3 H  pz                45      1.248169  2 H  s          

 Vector   37  Occ=0.000000D+00  E= 2.490748D+00
              MO Center=  5.4D-09,  1.7D-09, -1.2D-01, r^2= 1.2D+00
   Bfn.  Coefficient  Atom+Function         Bfn.  Coefficient  Atom+Function  
  ----- ------------  ---------------      ----- ------------  ---------------
    23      3.360120  1 N  dxy               48      1.880827  2 H  py         
    57     -1.880827  3 H  py                29     -1.487705  1 N  dxy        
    51     -1.240808  2 H  py                60      1.240808  3 H  py         
    38     -0.789192  1 N  fxyz              17      0.146436  1 N  dxy        

 Vector   38  Occ=0.000000D+00  E= 2.571894D+00
              MO Center=  2.7D-10,  1.2D-09, -7.4D-02, r^2= 1.5D+00
   Bfn.  Coefficient  Atom+Function         Bfn.  Coefficient  Atom+Function  
  ----- ------------  ---------------      ----- ------------  ---------------
     5     25.917732  1 N  s                 46    -17.391877  2 H  s          
    55    -17.391876  3 H  s                 45     -6.228477  2 H  s          
    54     -6.228477  3 H  s                 28      5.270633  1 N  dxx        
    15     -4.683649  1 N  pz                 4      4.441134  1 N  s          
     3      3.665689  1 N  s                 33      3.211459  1 N  dzz        

 Vector   39  Occ=0.000000D+00  E= 2.603793D+00
              MO Center= -4.6D-09,  5.8D-11, -2.0D-01, r^2= 1.0D+00
   Bfn.  Coefficient  Atom+Function         Bfn.  Coefficient  Atom+Function  
  ----- ------------  ---------------      ----- ------------  ---------------
    26      2.563861  1 N  dyz               48      1.953610  2 H  py         
    57      1.953610  3 H  py                11     -1.479030  1 N  py         
    35     -0.831775  1 N  fxxy              42     -0.700372  1 N  fyzz       
     8     -0.559989  1 N  py                40     -0.498003  1 N  fyyy       
    32     -0.367096  1 N  dyz               14      0.320941  1 N  py         

 Vector   40  Occ=0.000000D+00  E= 2.768250D+00
              MO Center=  1.8D-09,  1.7D-10, -2.2D-01, r^2= 1.1D+00
   Bfn.  Coefficient  Atom+Function         Bfn.  Coefficient  Atom+Function  
  ----- ------------  ---------------      ----- ------------  ---------------
    24      2.450969  1 N  dxz               45      2.086056  2 H  s          
    54     -2.086056  3 H  s                 47      1.891958  2 H  px         
    56      1.891958  3 H  px                10     -1.821327  1 N  px         
    30     -1.280460  1 N  dxz               13      1.231466  1 N  px         
    46     -1.224896  2 H  s                 55      1.224896  3 H  s          

 Vector   41  Occ=0.000000D+00  E= 2.902770D+00
              MO Center=  5.2D-10, -1.1D-10, -1.4D-01, r^2= 1.3D+00
   Bfn.  Coefficient  Atom+Function         Bfn.  Coefficient  Atom+Function  
  ----- ------------  ---------------      ----- ------------  ---------------
     5     10.143110  1 N  s                 46     -9.155125  2 H  s          
    55     -9.155125  3 H  s                  4     -4.312674  1 N  s          
    27      3.494908  1 N  dzz               28      3.480456  1 N  dxx        
    31      2.675338  1 N  dyy               45      2.489499  2 H  s          
    54      2.489499  3 H  s                 49      2.280664  2 H  pz         

 Vector   42  Occ=0.000000D+00  E= 3.875461D+00
              MO Center= -3.0D-11, -3.0D-10,  8.4D-02, r^2= 5.8D-01
   Bfn.  Coefficient  Atom+Function         Bfn.  Coefficient  Atom+Function  
  ----- ------------  ---------------      ----- ------------  ---------------
    42      2.169504  1 N  fyzz              35     -1.594891  1 N  fxxy       
    40     -0.259806  1 N  fyyy              26      0.227177  1 N  dyz        
    20     -0.175348  1 N  dyz               32     -0.065156  1 N  dyz        
    48      0.043838  2 H  py                57      0.043838  3 H  py         

 Vector   43  Occ=0.000000D+00  E= 4.140794D+00
              MO Center=  3.7D-11, -7.3D-10,  3.4D-02, r^2= 7.4D-01
   Bfn.  Coefficient  Atom+Function         Bfn.  Coefficient  Atom+Function  
  ----- ------------  ---------------      ----- ------------  ---------------
     4      6.070092  1 N  s                 41     -2.601721  1 N  fyyz       
    27     -2.499176  1 N  dzz                5      2.059846  1 N  s          
    25     -1.585310  1 N  dyy               45     -1.576726  2 H  s          
    54     -1.576726  3 H  s                  3     -1.454213  1 N  s          
    15     -1.264319  1 N  pz                12      1.045299  1 N  pz         

 Vector   44  Occ=0.000000D+00  E= 4.410478D+00
              MO Center= -4.4D-10, -3.6D-09,  9.0D-02, r^2= 1.0D+00
   Bfn.  Coefficient  Atom+Function         Bfn.  Coefficient  Atom+Function  
  ----- ------------  ---------------      ----- ------------  ---------------
    46     15.456151  2 H  s                 55    -15.456151  3 H  s          
    13      5.867132  1 N  px                45      4.764026  2 H  s          
    54     -4.764026  3 H  s                 50      2.178639  2 H  px         
    59      2.178639  3 H  px                24     -1.822391  1 N  dxz        
    37      1.799099  1 N  fxyy              39      1.547931  1 N  fxzz       

 Vector   45  Occ=0.000000D+00  E= 4.433349D+00
              MO Center= -1.9D-09, -1.4D-09,  1.5D-01, r^2= 6.1D-01
   Bfn.  Coefficient  Atom+Function         Bfn.  Coefficient  Atom+Function  
  ----- ------------  ---------------      ----- ------------  ---------------
    26      1.879204  1 N  dyz               35     -1.652609  1 N  fxxy       
    20     -1.436503  1 N  dyz               42     -1.114097  1 N  fyzz       
    11     -0.766809  1 N  py                48      0.716502  2 H  py         
    57      0.716502  3 H  py                40      0.687686  1 N  fyyy       
    32     -0.496702  1 N  dyz               14      0.368492  1 N  py         

 Vector   46  Occ=0.000000D+00  E= 4.509828D+00
              MO Center= -1.5D-10,  3.5D-09,  1.9D-01, r^2= 6.3D-01
   Bfn.  Coefficient  Atom+Function         Bfn.  Coefficient  Atom+Function  
  ----- ------------  ---------------      ----- ------------  ---------------
    38      2.883280  1 N  fxyz              23     -2.133868  1 N  dxy        
    17      1.611829  1 N  dxy               29      1.305153  1 N  dxy        
    51      0.978086  2 H  py                60     -0.978086  3 H  py         
    48     -0.564419  2 H  py                57      0.564419  3 H  py         

 Vector   47  Occ=0.000000D+00  E= 4.536097D+00
              MO Center= -2.1D-09, -3.6D-09, -8.7D-03, r^2= 9.7D-01
   Bfn.  Coefficient  Atom+Function         Bfn.  Coefficient  Atom+Function  
  ----- ------------  ---------------      ----- ------------  ---------------
     5     25.363209  1 N  s                  4     22.759691  1 N  s          
    46    -15.636347  2 H  s                 55    -15.636346  3 H  s          
     3     -9.678503  1 N  s                 25     -6.393803  1 N  dyy        
    22     -5.417745  1 N  dxx               27     -4.740917  1 N  dzz        
    15     -3.858078  1 N  pz                 6      3.522918  1 N  s          

 Vector   48  Occ=0.000000D+00  E= 4.636358D+00
              MO Center=  2.7D-09,  2.6D-09,  7.9D-02, r^2= 1.0D+00
   Bfn.  Coefficient  Atom+Function         Bfn.  Coefficient  Atom+Function  
  ----- ------------  ---------------      ----- ------------  ---------------
    11      3.933183  1 N  py                40     -2.404627  1 N  fyyy       
    14     -2.145124  1 N  py                42     -2.016376  1 N  fyzz       
    35     -1.687301  1 N  fxxy              51      0.585530  2 H  py         
    60      0.585530  3 H  py                 8      0.538204  1 N  py         
    20     -0.413479  1 N  dyz               32      0.379281  1 N  dyz        

 Vector   49  Occ=0.000000D+00  E= 4.705343D+00
              MO Center=  5.9D-10, -3.3D-10,  4.5D-02, r^2= 7.2D-01
   Bfn.  Coefficient  Atom+Function         Bfn.  Coefficient  Atom+Function  
  ----- ------------  ---------------      ----- ------------  ---------------
    46      3.495619  2 H  s                 55     -3.495619  3 H  s          
    37     -2.914627  1 N  fxyy              10      2.742758  1 N  px         
    24     -2.705257  1 N  dxz               47     -1.566892  2 H  px         
    56     -1.566892  3 H  px                45      1.445078  2 H  s          
    54     -1.445078  3 H  s                 34      1.159533  1 N  fxxx       

 Vector   50  Occ=0.000000D+00  E= 4.850453D+00
              MO Center=  2.4D-09, -1.2D-09, -2.7D-01, r^2= 8.0D-01
   Bfn.  Coefficient  Atom+Function         Bfn.  Coefficient  Atom+Function  
  ----- ------------  ---------------      ----- ------------  ---------------
     4    -13.100918  1 N  s                  3     12.419148  1 N  s          
    22      6.335887  1 N  dxx               27      5.838027  1 N  dzz        
    45     -5.826714  2 H  s                 54     -5.826714  3 H  s          
    25      4.905268  1 N  dyy               12     -4.777397  1 N  pz         
     5      4.746497  1 N  s                 36      1.738062  1 N  fxxz       

 Vector   51  Occ=0.000000D+00  E= 4.917985D+00
              MO Center=  4.3D-09,  6.3D-11,  1.8D-01, r^2= 7.4D-01
   Bfn.  Coefficient  Atom+Function         Bfn.  Coefficient  Atom+Function  
  ----- ------------  ---------------      ----- ------------  ---------------
     4      9.273609  1 N  s                 22     -4.116756  1 N  dxx        
    27     -3.296618  1 N  dzz               36      3.101550  1 N  fxxz       
     3     -3.064297  1 N  s                 25     -2.418224  1 N  dyy        
    41     -1.523324  1 N  fyyz               6      1.323487  1 N  s          
    47     -0.990096  2 H  px                56      0.990096  3 H  px         

 Vector   52  Occ=0.000000D+00  E= 4.922434D+00
              MO Center= -1.9D-08,  4.5D-10, -3.3D-02, r^2= 9.8D-01
   Bfn.  Coefficient  Atom+Function         Bfn.  Coefficient  Atom+Function  
  ----- ------------  ---------------      ----- ------------  ---------------
    46     11.590690  2 H  s                 55    -11.590691  3 H  s          
    10     -6.606257  1 N  px                45     -4.928798  2 H  s          
    54      4.928798  3 H  s                 39      2.709815  1 N  fxzz       
    37      2.342685  1 N  fxyy              13      2.194492  1 N  px         
    34      2.070554  1 N  fxxx              50      2.016194  2 H  px         

 Vector   53  Occ=0.000000D+00  E= 5.027127D+00
              MO Center=  1.4D-08,  4.3D-09,  5.0D-01, r^2= 9.7D-01
   Bfn.  Coefficient  Atom+Function         Bfn.  Coefficient  Atom+Function  
  ----- ------------  ---------------      ----- ------------  ---------------
     4     33.359423  1 N  s                  5    -20.311388  1 N  s          
     3    -18.962416  1 N  s                 46     16.810870  2 H  s          
    55     16.810869  3 H  s                 25    -10.184131  1 N  dyy        
    27    -10.167395  1 N  dzz               22    -10.042304  1 N  dxx        
    28     -5.802291  1 N  dxx               31     -5.143358  1 N  dyy        

 Vector   54  Occ=0.000000D+00  E= 5.213831D+00
              MO Center= -2.6D-09,  6.0D-10, -1.3D-02, r^2= 6.4D-01
   Bfn.  Coefficient  Atom+Function         Bfn.  Coefficient  Atom+Function  
  ----- ------------  ---------------      ----- ------------  ---------------
    35      3.541715  1 N  fxxy              42      2.181829  1 N  fyzz       
    48     -1.780157  2 H  py                57     -1.780157  3 H  py         
    20     -1.622704  1 N  dyz               26     -1.344502  1 N  dyz        
    11      0.476510  1 N  py                 8      0.258171  1 N  py         
    14      0.233502  1 N  py                51     -0.073255  2 H  py         

 Vector   55  Occ=0.000000D+00  E= 5.262841D+00
              MO Center= -1.3D-10, -2.1D-12,  1.0D-01, r^2= 7.9D-01
   Bfn.  Coefficient  Atom+Function         Bfn.  Coefficient  Atom+Function  
  ----- ------------  ---------------      ----- ------------  ---------------
    46      6.017675  2 H  s                 55     -6.017675  3 H  s          
    39     -3.108026  1 N  fxzz              24      2.777734  1 N  dxz        
    37      2.106656  1 N  fxyy              34      2.079914  1 N  fxxx       
    10     -2.035316  1 N  px                49      1.801310  2 H  pz         
    58     -1.801310  3 H  pz                13      1.517547  1 N  px         

 Vector   56  Occ=0.000000D+00  E= 5.316614D+00
              MO Center=  2.4D-09,  2.0D-10, -2.2D-02, r^2= 6.5D-01
   Bfn.  Coefficient  Atom+Function         Bfn.  Coefficient  Atom+Function  
  ----- ------------  ---------------      ----- ------------  ---------------
    38      5.513498  1 N  fxyz              23     -2.154302  1 N  dxy        
    48     -1.848043  2 H  py                57      1.848043  3 H  py         
    17     -1.600049  1 N  dxy               29      0.397723  1 N  dxy        
    51      0.337403  2 H  py                60     -0.337403  3 H  py         

 Vector   57  Occ=0.000000D+00  E= 5.538909D+00
              MO Center=  4.7D-10,  1.6D-10,  7.5D-03, r^2= 7.5D-01
   Bfn.  Coefficient  Atom+Function         Bfn.  Coefficient  Atom+Function  
  ----- ------------  ---------------      ----- ------------  ---------------
     5     13.765338  1 N  s                 46     -9.548516  2 H  s          
    55     -9.548516  3 H  s                  3      4.951767  1 N  s          
     4     -4.040469  1 N  s                 27      3.464943  1 N  dzz        
    28      2.832962  1 N  dxx               15     -2.289119  1 N  pz         
    43     -2.275084  1 N  fzzz              45     -1.994785  2 H  s          

 Vector   58  Occ=0.000000D+00  E= 9.820538D+00
              MO Center= -5.8D-11,  1.5D-11, -9.6D-02, r^2= 5.5D-01
   Bfn.  Coefficient  Atom+Function         Bfn.  Coefficient  Atom+Function  
  ----- ------------  ---------------      ----- ------------  ---------------
     4     22.073824  1 N  s                  5     11.750103  1 N  s          
    46     -7.024609  2 H  s                 55     -7.024609  3 H  s          
    25     -5.132369  1 N  dyy               27     -4.703701  1 N  dzz        
    36     -4.712480  1 N  fxxz              44     -3.946624  2 H  s          
    53     -3.946624  3 H  s                  3     -3.842117  1 N  s          

 Vector   59  Occ=0.000000D+00  E= 1.026617D+01
              MO Center=  1.3D-10,  6.8D-11,  2.7D-02, r^2= 5.7D-01
   Bfn.  Coefficient  Atom+Function         Bfn.  Coefficient  Atom+Function  
  ----- ------------  ---------------      ----- ------------  ---------------
    46      9.818362  2 H  s                 55     -9.818362  3 H  s          
    13      3.880106  1 N  px                39      3.811040  1 N  fxzz       
    44      3.737803  2 H  s                 53     -3.737803  3 H  s          
    45      3.461351  2 H  s                 54     -3.461351  3 H  s          
    18     -3.252617  1 N  dxz               34      2.137396  1 N  fxxx       

 Vector   60  Occ=0.000000D+00  E= 1.206229D+01
              MO Center= -9.7D-11,  2.8D-11,  1.2D-01, r^2= 4.8D-01
   Bfn.  Coefficient  Atom+Function         Bfn.  Coefficient  Atom+Function  
  ----- ------------  ---------------      ----- ------------  ---------------
     4     16.316503  1 N  s                  5     -8.163524  1 N  s          
    46      6.650758  2 H  s                 55      6.650758  3 H  s          
    22     -6.292961  1 N  dxx               27     -6.082937  1 N  dzz        
    25     -5.800683  1 N  dyy                3     -4.284519  1 N  s          
    16     -3.599782  1 N  dxx               21     -3.381153  1 N  dzz        

 Vector   61  Occ=0.000000D+00  E= 5.166913D+01
              MO Center=  7.0D-12, -4.2D-12,  7.7D-02, r^2= 1.0D-01
   Bfn.  Coefficient  Atom+Function         Bfn.  Coefficient  Atom+Function  
  ----- ------------  ---------------      ----- ------------  ---------------
     3      7.662767  1 N  s                  2     -4.039210  1 N  s          
    16     -2.718187  1 N  dxx               21     -2.697088  1 N  dzz        
    19     -2.674682  1 N  dyy               46      2.370094  2 H  s          
    55      2.370094  3 H  s                  5     -1.939179  1 N  s          
     1      1.692477  1 N  s                  4     -1.438678  1 N  s          


                     DFT Final Beta Molecular Orbital Analysis
                     -----------------------------------------

 Vector    1  Occ=1.000000D+00  E=-1.414348D+01
              MO Center=  2.0D-11,  4.4D-12,  7.4D-02, r^2= 2.0D-02
   Bfn.  Coefficient  Atom+Function         Bfn.  Coefficient  Atom+Function  
  ----- ------------  ---------------      ----- ------------  ---------------
     2      0.616488  1 N  s                  1      0.448608  1 N  s          
     4     -0.141420  1 N  s                  3      0.122079  1 N  s          
    25      0.030494  1 N  dyy               22      0.029159  1 N  dxx        
    27      0.028495  1 N  dzz        

 Vector    2  Occ=1.000000D+00  E=-1.166589D+00
              MO Center=  1.3D-10,  5.3D-10, -2.2D-01, r^2= 4.0D-01
   Bfn.  Coefficient  Atom+Function         Bfn.  Coefficient  Atom+Function  
  ----- ------------  ---------------      ----- ------------  ---------------
     3      0.476789  1 N  s                  5     -0.360322  1 N  s          
     4     -0.347986  1 N  s                 46      0.233930  2 H  s          
    55      0.233930  3 H  s                  2     -0.229829  1 N  s          
    44      0.222751  2 H  s                 53      0.222751  3 H  s          
    45      0.201297  2 H  s                 54      0.201297  3 H  s          

 Vector    3  Occ=1.000000D+00  E=-7.518220D-01
              MO Center= -1.1D-10, -3.7D-11, -6.0D-02, r^2= 5.2D-01
   Bfn.  Coefficient  Atom+Function         Bfn.  Coefficient  Atom+Function  
  ----- ------------  ---------------      ----- ------------  ---------------
     7      0.465604  1 N  px                45     -0.267533  2 H  s          
    54      0.267533  3 H  s                 44     -0.224893  2 H  s          
    53      0.224893  3 H  s                 46     -0.201150  2 H  s          
    55      0.201150  3 H  s                 10      0.191741  1 N  px         
    18     -0.062965  1 N  dxz               24      0.045095  1 N  dxz        

 Vector    4  Occ=1.000000D+00  E=-4.447613D-01
              MO Center= -2.6D-10,  1.4D-09,  4.1D-01, r^2= 6.8D-01
   Bfn.  Coefficient  Atom+Function         Bfn.  Coefficient  Atom+Function  
  ----- ------------  ---------------      ----- ------------  ---------------
     4      0.465630  1 N  s                  9      0.415263  1 N  pz         
    12      0.304417  1 N  pz                 5      0.263739  1 N  s          
    15      0.166440  1 N  pz                 6      0.148670  1 N  s          
    45     -0.097611  2 H  s                 54     -0.097611  3 H  s          
     2     -0.091041  1 N  s                 44     -0.077257  2 H  s          

 Vector    5  Occ=0.000000D+00  E=-3.464902D-02
              MO Center= -1.5D-10, -4.4D-09, -1.7D-03, r^2= 1.2D+00
   Bfn.  Coefficient  Atom+Function         Bfn.  Coefficient  Atom+Function  
  ----- ------------  ---------------      ----- ------------  ---------------
     8      0.404742  1 N  py                11      0.398557  1 N  py         
    51      0.178215  2 H  py                60      0.178215  3 H  py         
    14      0.101898  1 N  py                26     -0.048302  1 N  dyz        
    32      0.037769  1 N  dyz               20     -0.032342  1 N  dyz        
    40     -0.029302  1 N  fyyy       

 Vector    6  Occ=0.000000D+00  E= 7.476564D-02
              MO Center=  2.9D-08,  2.9D-09, -7.9D-01, r^2= 7.1D+00
   Bfn.  Coefficient  Atom+Function         Bfn.  Coefficient  Atom+Function  
  ----- ------------  ---------------      ----- ------------  ---------------
     5     10.563354  1 N  s                 46     -7.973962  2 H  s          
    55     -7.973964  3 H  s                  6      6.400791  1 N  s          
    52     -1.519617  2 H  pz                61     -1.519617  3 H  pz         
    50     -0.866663  2 H  px                59      0.866663  3 H  px         
    15     -0.754323  1 N  pz                28      0.683845  1 N  dxx        

 Vector    7  Occ=0.000000D+00  E= 1.535139D-01
              MO Center= -1.0D-07,  1.1D-10, -6.9D-01, r^2= 6.8D+00
   Bfn.  Coefficient  Atom+Function         Bfn.  Coefficient  Atom+Function  
  ----- ------------  ---------------      ----- ------------  ---------------
    46     15.689834  2 H  s                 55    -15.689841  3 H  s          
    50      4.300432  2 H  px                59      4.300433  3 H  px         
    52      1.155941  2 H  pz                61     -1.155943  3 H  pz         
    13      0.739305  1 N  px                45     -0.507933  2 H  s          
    54      0.507933  3 H  s                 30      0.446487  1 N  dxz        

 Vector    8  Occ=0.000000D+00  E= 1.772572D-01
              MO Center=  2.9D-08,  1.6D-09, -3.3D-02, r^2= 7.3D+00
   Bfn.  Coefficient  Atom+Function         Bfn.  Coefficient  Atom+Function  
  ----- ------------  ---------------      ----- ------------  ---------------
     5     23.502377  1 N  s                 46    -14.912062  2 H  s          
    55    -14.912063  3 H  s                 28      4.471977  1 N  dxx        
    31      4.033923  1 N  dyy               52     -3.501174  2 H  pz         
    61     -3.501174  3 H  pz                33      3.312272  1 N  dzz        
    50     -1.643411  2 H  px                59      1.643411  3 H  px         

 Vector    9  Occ=0.000000D+00  E= 2.109542D-01
              MO Center=  2.6D-10, -3.1D-09, -4.4D-01, r^2= 5.8D+00
   Bfn.  Coefficient  Atom+Function         Bfn.  Coefficient  Atom+Function  
  ----- ------------  ---------------      ----- ------------  ---------------
    14      2.188751  1 N  py                51     -1.369649  2 H  py         
    60     -1.369649  3 H  py                32     -0.544764  1 N  dyz        
    11     -0.289798  1 N  py                 8      0.265763  1 N  py         
    42      0.094927  1 N  fyzz              35      0.093423  1 N  fxxy       
    40      0.091536  1 N  fyyy              26      0.048133  1 N  dyz        

 Vector   10  Occ=0.000000D+00  E= 2.522898D-01
              MO Center=  5.3D-08,  7.7D-12, -4.4D-01, r^2= 6.7D+00
   Bfn.  Coefficient  Atom+Function         Bfn.  Coefficient  Atom+Function  
  ----- ------------  ---------------      ----- ------------  ---------------
    46      6.090724  2 H  s                 55      6.090736  3 H  s          
     6     -4.639949  1 N  s                  5     -4.460527  1 N  s          
    50     -2.623623  2 H  px                59      2.623621  3 H  px         
    28     -1.918160  1 N  dxx               52      0.960124  2 H  pz         
    61      0.960126  3 H  pz                31     -0.299966  1 N  dyy        

 Vector   11  Occ=0.000000D+00  E= 2.569299D-01
              MO Center= -3.4D-11, -8.1D-09, -6.2D-01, r^2= 6.5D+00
   Bfn.  Coefficient  Atom+Function         Bfn.  Coefficient  Atom+Function  
  ----- ------------  ---------------      ----- ------------  ---------------
    51      4.009872  2 H  py                60     -4.009872  3 H  py         
    29      1.887961  1 N  dxy               23     -0.199642  1 N  dxy        
    38      0.051511  1 N  fxyz              48     -0.030523  2 H  py         
    57      0.030523  3 H  py         

 Vector   12  Occ=0.000000D+00  E= 2.580048D-01
              MO Center= -6.9D-08,  7.6D-09, -7.5D-02, r^2= 6.6D+00
   Bfn.  Coefficient  Atom+Function         Bfn.  Coefficient  Atom+Function  
  ----- ------------  ---------------      ----- ------------  ---------------
    46     12.073023  2 H  s                 55    -12.073019  3 H  s          
    52      3.815289  2 H  pz                61     -3.815288  3 H  pz         
    13      2.948332  1 N  px                50      1.865705  2 H  px         
    59      1.865706  3 H  px                30      0.642051  1 N  dxz        
    45      0.337705  2 H  s                 54     -0.337705  3 H  s          

 Vector   13  Occ=0.000000D+00  E= 2.832339D-01
              MO Center=  6.5D-08,  3.8D-10, -5.1D-01, r^2= 7.1D+00
   Bfn.  Coefficient  Atom+Function         Bfn.  Coefficient  Atom+Function  
  ----- ------------  ---------------      ----- ------------  ---------------
     5     61.576698  1 N  s                 46    -41.579599  2 H  s          
    55    -41.579607  3 H  s                  6      9.486162  1 N  s          
    28      8.133451  1 N  dxx               33      6.745223  1 N  dzz        
    31      6.703588  1 N  dyy               52     -6.246025  2 H  pz         
    61     -6.246025  3 H  pz                15     -5.505619  1 N  pz         

 Vector   14  Occ=0.000000D+00  E= 3.796116D-01
              MO Center= -9.8D-08, -9.7D-09,  2.7D-01, r^2= 5.5D+00
   Bfn.  Coefficient  Atom+Function         Bfn.  Coefficient  Atom+Function  
  ----- ------------  ---------------      ----- ------------  ---------------
     5     14.593365  1 N  s                 46     -9.478058  2 H  s          
    55     -9.478066  3 H  s                  6     -4.790485  1 N  s          
    33      4.715316  1 N  dzz               28      4.398892  1 N  dxx        
    31      3.546011  1 N  dyy               15     -2.108569  1 N  pz         
     3      1.010856  1 N  s                 50     -1.010143  2 H  px         

 Vector   15  Occ=0.000000D+00  E= 3.982159D-01
              MO Center= -1.9D-09,  5.1D-09,  4.1D-01, r^2= 3.8D+00
   Bfn.  Coefficient  Atom+Function         Bfn.  Coefficient  Atom+Function  
  ----- ------------  ---------------      ----- ------------  ---------------
    32      1.856844  1 N  dyz               26     -0.190692  1 N  dyz        
    51      0.167943  2 H  py                60      0.167943  3 H  py         
    14     -0.118705  1 N  py                48     -0.069382  2 H  py         
    57     -0.069382  3 H  py                35      0.068403  1 N  fxxy       
    20      0.043637  1 N  dyz               42      0.037621  1 N  fyzz       

 Vector   16  Occ=0.000000D+00  E= 4.110198D-01
              MO Center=  4.8D-09, -9.6D-10, -4.2D-01, r^2= 6.6D+00
   Bfn.  Coefficient  Atom+Function         Bfn.  Coefficient  Atom+Function  
  ----- ------------  ---------------      ----- ------------  ---------------
    46     56.851403  2 H  s                 55    -56.851405  3 H  s          
    50     11.616383  2 H  px                59     11.616383  3 H  px         
    13      7.293709  1 N  px                30     -2.522497  1 N  dxz        
    45      0.384696  2 H  s                 54     -0.384696  3 H  s          
    52      0.332828  2 H  pz                61     -0.332829  3 H  pz         

 Vector   17  Occ=0.000000D+00  E= 5.066871D-01
              MO Center= -4.2D-08,  4.3D-09,  1.9D-01, r^2= 5.4D+00
   Bfn.  Coefficient  Atom+Function         Bfn.  Coefficient  Atom+Function  
  ----- ------------  ---------------      ----- ------------  ---------------
     5     52.423834  1 N  s                 46    -34.349246  2 H  s          
    55    -34.349240  3 H  s                 31     10.132145  1 N  dyy        
    28      8.395588  1 N  dxx               33      8.060275  1 N  dzz        
    50     -5.813775  2 H  px                59      5.813773  3 H  px         
    52     -5.755440  2 H  pz                61     -5.755439  3 H  pz         

 Vector   18  Occ=0.000000D+00  E= 5.311897D-01
              MO Center=  5.0D-08,  2.6D-09, -1.4D-01, r^2= 4.9D+00
   Bfn.  Coefficient  Atom+Function         Bfn.  Coefficient  Atom+Function  
  ----- ------------  ---------------      ----- ------------  ---------------
    30      5.167878  1 N  dxz               52      4.199900  2 H  pz         
    61     -4.199901  3 H  pz                46     -3.766227  2 H  s          
    55      3.766222  3 H  s                 45     -2.173546  2 H  s          
    54      2.173546  3 H  s                 13     -1.691583  1 N  px         
    10     -0.836550  1 N  px                50     -0.360454  2 H  px         

 Vector   19  Occ=0.000000D+00  E= 5.834788D-01
              MO Center= -1.3D-09, -4.5D-09,  2.8D-02, r^2= 4.5D+00
   Bfn.  Coefficient  Atom+Function         Bfn.  Coefficient  Atom+Function  
  ----- ------------  ---------------      ----- ------------  ---------------
    29      4.941384  1 N  dxy               51      4.793069  2 H  py         
    60     -4.793069  3 H  py                23     -0.316792  1 N  dxy        
    38      0.111977  1 N  fxyz              48     -0.112281  2 H  py         
    57      0.112281  3 H  py                17      0.051903  1 N  dxy        

 Vector   20  Occ=0.000000D+00  E= 5.875433D-01
              MO Center=  1.3D-07, -4.5D-11, -2.5D-01, r^2= 4.4D+00
   Bfn.  Coefficient  Atom+Function         Bfn.  Coefficient  Atom+Function  
  ----- ------------  ---------------      ----- ------------  ---------------
     5     23.911457  1 N  s                 46    -18.862994  2 H  s          
    55    -18.862992  3 H  s                 28      7.463810  1 N  dxx        
    31      3.700638  1 N  dyy               52     -3.584513  2 H  pz         
    61     -3.584513  3 H  pz                 6      3.202494  1 N  s          
    33      2.406698  1 N  dzz               50      1.317895  2 H  px         

 Vector   21  Occ=0.000000D+00  E= 7.112457D-01
              MO Center=  3.7D-09,  6.6D-09, -2.0D-01, r^2= 3.7D+00
   Bfn.  Coefficient  Atom+Function         Bfn.  Coefficient  Atom+Function  
  ----- ------------  ---------------      ----- ------------  ---------------
    14      4.184848  1 N  py                11     -1.722101  1 N  py         
    51     -1.481602  2 H  py                60     -1.481602  3 H  py         
    32     -1.060602  1 N  dyz               40      0.272211  1 N  fyyy       
     8     -0.265973  1 N  py                42      0.224366  1 N  fyzz       
    35      0.196427  1 N  fxxy              26      0.107417  1 N  dyz        

 Vector   22  Occ=0.000000D+00  E= 7.349305D-01
              MO Center=  1.4D-05, -3.7D-09, -1.6D-01, r^2= 4.8D+00
   Bfn.  Coefficient  Atom+Function         Bfn.  Coefficient  Atom+Function  
  ----- ------------  ---------------      ----- ------------  ---------------
     5     71.210497  1 N  s                 46    -46.944546  2 H  s          
    55    -46.946613  3 H  s                  6     10.887939  1 N  s          
    15     -9.544628  1 N  pz                28      9.447996  1 N  dxx        
    31      7.360339  1 N  dyy               33      6.833633  1 N  dzz        
    52     -5.993977  2 H  pz                61     -5.994082  3 H  pz         

 Vector   23  Occ=0.000000D+00  E= 7.351737D-01
              MO Center= -1.4D-05,  3.1D-09,  5.4D-01, r^2= 3.8D+00
   Bfn.  Coefficient  Atom+Function         Bfn.  Coefficient  Atom+Function  
  ----- ------------  ---------------      ----- ------------  ---------------
    46     46.341748  2 H  s                 55    -46.339650  3 H  s          
    13     12.126470  1 N  px                50      7.441586  2 H  px         
    59      7.441388  3 H  px                45      3.518330  2 H  s          
    54     -3.518216  3 H  s                 30     -2.442134  1 N  dxz        
    52      2.342955  2 H  pz                61     -2.342687  3 H  pz         

 Vector   24  Occ=0.000000D+00  E= 1.015858D+00
              MO Center=  9.9D-09, -4.0D-09,  7.3D-01, r^2= 3.4D+00
   Bfn.  Coefficient  Atom+Function         Bfn.  Coefficient  Atom+Function  
  ----- ------------  ---------------      ----- ------------  ---------------
     5     26.319667  1 N  s                 46    -23.177428  2 H  s          
    55    -23.177427  3 H  s                 31      9.164264  1 N  dyy        
    28      8.957679  1 N  dxx               33      8.560366  1 N  dzz        
     6     -4.222799  1 N  s                 15     -3.548291  1 N  pz         
    45      3.204033  2 H  s                 54      3.204033  3 H  s          

 Vector   25  Occ=0.000000D+00  E= 1.052436D+00
              MO Center= -6.6D-07, -1.0D-10, -4.0D-01, r^2= 2.7D+00
   Bfn.  Coefficient  Atom+Function         Bfn.  Coefficient  Atom+Function  
  ----- ------------  ---------------      ----- ------------  ---------------
    46     17.576820  2 H  s                 55    -17.576843  3 H  s          
    45     -6.435624  2 H  s                 54      6.435613  3 H  s          
    10     -4.179386  1 N  px                50      3.678136  2 H  px         
    59      3.678137  3 H  px                30      2.876313  1 N  dxz        
    52      2.327113  2 H  pz                61     -2.327116  3 H  pz         

 Vector   26  Occ=0.000000D+00  E= 1.054452D+00
              MO Center=  6.6D-07, -1.5D-10, -2.0D-01, r^2= 2.7D+00
   Bfn.  Coefficient  Atom+Function         Bfn.  Coefficient  Atom+Function  
  ----- ------------  ---------------      ----- ------------  ---------------
     5     28.750990  1 N  s                 46    -18.734188  2 H  s          
    55    -18.734163  3 H  s                 45     -7.947194  2 H  s          
    54     -7.947203  3 H  s                  4      6.473494  1 N  s          
    28      6.260134  1 N  dxx               15     -5.442691  1 N  pz         
    33      4.370132  1 N  dzz               31      3.608648  1 N  dyy        

 Vector   27  Occ=0.000000D+00  E= 1.356916D+00
              MO Center=  4.3D-10, -9.2D-10,  1.7D-01, r^2= 1.5D+00
   Bfn.  Coefficient  Atom+Function         Bfn.  Coefficient  Atom+Function  
  ----- ------------  ---------------      ----- ------------  ---------------
    26      2.244224  1 N  dyz               32     -1.078208  1 N  dyz        
    14      0.340258  1 N  py                42     -0.214292  1 N  fyzz       
    35     -0.197575  1 N  fxxy              48      0.195536  2 H  py         
    57      0.195536  3 H  py                51     -0.160668  2 H  py         
    60     -0.160668  3 H  py                11     -0.122450  1 N  py         

 Vector   28  Occ=0.000000D+00  E= 1.427910D+00
              MO Center=  8.7D-09,  2.9D-09, -6.1D-02, r^2= 2.1D+00
   Bfn.  Coefficient  Atom+Function         Bfn.  Coefficient  Atom+Function  
  ----- ------------  ---------------      ----- ------------  ---------------
     5     33.101865  1 N  s                 46    -24.984696  2 H  s          
    55    -24.984694  3 H  s                 28      8.185861  1 N  dxx        
    31      5.954091  1 N  dyy               33      4.296348  1 N  dzz        
    52     -4.066491  2 H  pz                61     -4.066491  3 H  pz         
     6      2.764252  1 N  s                 15     -2.297175  1 N  pz         

 Vector   29  Occ=0.000000D+00  E= 1.444228D+00
              MO Center= -1.0D-09,  1.2D-09,  1.2D-01, r^2= 1.8D+00
   Bfn.  Coefficient  Atom+Function         Bfn.  Coefficient  Atom+Function  
  ----- ------------  ---------------      ----- ------------  ---------------
    29      3.034400  1 N  dxy               23     -2.438817  1 N  dxy        
    51      2.365550  2 H  py                60     -2.365550  3 H  py         
    38      0.387301  1 N  fxyz              48     -0.162476  2 H  py         
    57      0.162476  3 H  py                17     -0.070246  1 N  dxy        

 Vector   30  Occ=0.000000D+00  E= 1.664678D+00
              MO Center= -1.6D-09,  2.5D-09, -1.0D-01, r^2= 2.1D+00
   Bfn.  Coefficient  Atom+Function         Bfn.  Coefficient  Atom+Function  
  ----- ------------  ---------------      ----- ------------  ---------------
     5     44.371345  1 N  s                 46    -26.100909  2 H  s          
    55    -26.100908  3 H  s                  4      7.308894  1 N  s          
    15     -7.158085  1 N  pz                45     -6.966990  2 H  s          
    54     -6.966990  3 H  s                 28      4.595318  1 N  dxx        
     6      4.470608  1 N  s                 31      4.426362  1 N  dyy        

 Vector   31  Occ=0.000000D+00  E= 1.681694D+00
              MO Center= -5.0D-09, -8.7D-10,  2.4D-01, r^2= 2.1D+00
   Bfn.  Coefficient  Atom+Function         Bfn.  Coefficient  Atom+Function  
  ----- ------------  ---------------      ----- ------------  ---------------
    46     22.461992  2 H  s                 55    -22.461992  3 H  s          
    13      8.790268  1 N  px                45      7.184672  2 H  s          
    54     -7.184672  3 H  s                 24     -3.421988  1 N  dxz        
    50      3.067324  2 H  px                59      3.067324  3 H  px         
    10      1.903160  1 N  px                52      1.871998  2 H  pz         

 Vector   32  Occ=0.000000D+00  E= 1.993359D+00
              MO Center= -8.4D-10, -7.4D-09, -3.1D-02, r^2= 2.0D+00
   Bfn.  Coefficient  Atom+Function         Bfn.  Coefficient  Atom+Function  
  ----- ------------  ---------------      ----- ------------  ---------------
    11      4.074706  1 N  py                14     -3.414680  1 N  py         
     8     -1.140283  1 N  py                51      0.993428  2 H  py         
    60      0.993428  3 H  py                40     -0.958786  1 N  fyyy       
    42     -0.870928  1 N  fyzz              35     -0.823347  1 N  fxxy       
    32      0.757672  1 N  dyz               26     -0.495474  1 N  dyz        

 Vector   33  Occ=0.000000D+00  E= 2.087636D+00
              MO Center=  1.4D-09,  2.7D-09, -3.7D-01, r^2= 1.9D+00
   Bfn.  Coefficient  Atom+Function         Bfn.  Coefficient  Atom+Function  
  ----- ------------  ---------------      ----- ------------  ---------------
     5     15.198858  1 N  s                 46     -9.999407  2 H  s          
    55     -9.999407  3 H  s                 12      5.518997  1 N  pz         
     6      4.361235  1 N  s                 45      4.358874  2 H  s          
    54      4.358874  3 H  s                 22     -4.036715  1 N  dxx        
    27     -3.398981  1 N  dzz                3     -3.297233  1 N  s          

 Vector   34  Occ=0.000000D+00  E= 2.261578D+00
              MO Center= -3.3D-08, -3.6D-10, -2.1D-01, r^2= 1.8D+00
   Bfn.  Coefficient  Atom+Function         Bfn.  Coefficient  Atom+Function  
  ----- ------------  ---------------      ----- ------------  ---------------
    46     19.465557  2 H  s                 55    -19.465558  3 H  s          
    10     -7.682619  1 N  px                45     -6.466935  2 H  s          
    54      6.466935  3 H  s                 13      3.583905  1 N  px         
    50      3.397112  2 H  px                59      3.397112  3 H  px         
    24      2.130050  1 N  dxz               52      1.455151  2 H  pz         

 Vector   35  Occ=0.000000D+00  E= 2.311449D+00
              MO Center=  2.9D-08,  2.0D-09,  6.5D-01, r^2= 1.9D+00
   Bfn.  Coefficient  Atom+Function         Bfn.  Coefficient  Atom+Function  
  ----- ------------  ---------------      ----- ------------  ---------------
    46    -19.655233  2 H  s                 55    -19.655231  3 H  s          
     5     19.497651  1 N  s                  4     -9.221583  1 N  s          
    28      7.812605  1 N  dxx               31      7.581209  1 N  dyy        
    33      7.239233  1 N  dzz                3      5.548642  1 N  s          
    22      5.515995  1 N  dxx               25      5.119861  1 N  dyy        

 Vector   36  Occ=0.000000D+00  E= 2.419942D+00
              MO Center= -2.9D-10, -8.2D-10, -1.4D-01, r^2= 1.2D+00
   Bfn.  Coefficient  Atom+Function         Bfn.  Coefficient  Atom+Function  
  ----- ------------  ---------------      ----- ------------  ---------------
    46      9.256545  2 H  s                 55     -9.256545  3 H  s          
    13      2.151743  1 N  px                24      1.736382  1 N  dxz        
    30     -1.633834  1 N  dxz               50      1.618103  2 H  px         
    59      1.618103  3 H  px                49      1.568469  2 H  pz         
    58     -1.568469  3 H  pz                45      1.166660  2 H  s          

 Vector   37  Occ=0.000000D+00  E= 2.519014D+00
              MO Center=  5.6D-09,  1.1D-09, -1.2D-01, r^2= 1.2D+00
   Bfn.  Coefficient  Atom+Function         Bfn.  Coefficient  Atom+Function  
  ----- ------------  ---------------      ----- ------------  ---------------
    23      3.366278  1 N  dxy               48      1.888401  2 H  py         
    57     -1.888401  3 H  py                29     -1.479821  1 N  dxy        
    51     -1.233488  2 H  py                60      1.233488  3 H  py         
    38     -0.812308  1 N  fxyz              17      0.153104  1 N  dxy        

 Vector   38  Occ=0.000000D+00  E= 2.587376D+00
              MO Center=  5.9D-10,  8.0D-10, -6.5D-02, r^2= 1.5D+00
   Bfn.  Coefficient  Atom+Function         Bfn.  Coefficient  Atom+Function  
  ----- ------------  ---------------      ----- ------------  ---------------
     5     27.180009  1 N  s                 46    -18.401903  2 H  s          
[...]
           0.000000000000           2.008435471558           0.000000000000
           0.000000000000           0.000000000000           1.296797036593

     Multipole analysis of the density
     ---------------------------------

     L   x y z        total         alpha         beta         nuclear
     -   - - -        -----         -----         ----         -------
     0   0 0 0     -0.000000     -5.000000     -4.000000      9.000000

     1   1 0 0      0.000000      0.000000      0.000000      0.000000
     1   0 1 0      0.000000      0.000000     -0.000000      0.000000
     1   0 0 1     -0.758315     -0.387366     -0.370949      0.000000

     2   2 0 0     -4.220110     -2.976721     -2.530117      1.286728
     2   1 1 0      0.000000      0.000000     -0.000000      0.000000
     2   1 0 1      0.000000      0.000000      0.000000      0.000000
     2   0 2 0     -4.510830     -3.057816     -1.453014      0.000000
     2   0 1 1     -0.000000      0.000000     -0.000000      0.000000
     2   0 0 2     -4.966001     -3.005441     -2.588813      0.628253

  int_init: cando_txs set to always be  F
                                NWChem TDDFT Module
                                -------------------


            General Information
            -------------------
           No. of orbitals :     122
            Alpha orbitals :      61
             Beta orbitals :      61
        Alpha frozen cores :       0
         Beta frozen cores :       0
     Alpha frozen virtuals :       0
      Beta frozen virtuals :       0
         Spin multiplicity :       2
    Number of AO functions :      61
        Use of symmetry is : off
      Symmetry adaption is : off
         Schwarz screening :  0.10D-07

              XC Information
              --------------
              Hartree-Fock (Exact) Exchange   1.00          
              LC-wPBE(h)Exchange Functional   1.00          
     Perdew 1991 LDA Correlation Functional   1.00 local    
    PerdewBurkeErnz. Correlation Functional   1.00 non-local
           Alpha           :  0.00
           Beta            :  1.00
           Gamma           :  0.37

             TDDFT Information
             -----------------
          Calculation type : Tamm-Dancoff TDDFT
         Wavefunction type : Unrestricted
          No. of electrons :       9
           Alpha electrons :       5
            Beta electrons :       4
              No. of roots :      10
          Max subspacesize :    6000
            Max iterations :     100
               Target root :       1
           Target symmetry : none
      Symmetry restriction : off
                 Algorithm : Optimal
        Davidson threshold :  0.10D-03

            Memory Information
            ------------------
          Available GA space size is       47185912558 doubles
          Available MA space size is         419534276 doubles
          Length of a trial vector is          280     228
          Algorithm : Incore multiple tensor contraction
          Estimated peak GA usage is          10362126 doubles
          Estimated peak MA usage is             51000 doubles

   10 smallest eigenvalue differences (eV) 
--------------------------------------------------------
  No. Spin  Occ  Vir  Irrep   E(Occ)    E(Vir)   E(Diff)
--------------------------------------------------------
    1    2    4    5 a        -0.445    -0.035    11.160
    2    2    4    6 a        -0.445     0.075    14.137
    3    1    5    6 a        -0.474     0.072    14.865
    4    1    4    6 a        -0.478     0.072    14.950
    5    2    4    7 a        -0.445     0.154    16.280
    6    2    4    8 a        -0.445     0.177    16.926
    7    1    5    7 a        -0.474     0.153    17.068
    8    1    4    7 a        -0.478     0.153    17.153
    9    1    5    8 a        -0.474     0.176    17.690
   10    1    4    8 a        -0.478     0.176    17.774
--------------------------------------------------------

  Entering Davidson iterations
  Unrestricted

  Iter   NTrls   NConv    DeltaV     DeltaE      Time   
  ----  ------  ------  ---------  ---------  --------- 
    1     10       0     0.12E+00   0.10+100       10.5
    2     20       0     0.41E-01   0.12E-01       11.7
    3     30       0     0.62E-01   0.63E-02       11.0
    4     40       0     0.11E+00   0.19E-01       11.7
    5     50       1     0.38E-01   0.17E-01       11.3
    6     59       6     0.56E-02   0.82E-03       10.2
    7     63       6     0.21E-02   0.21E-04        4.9
    8     67       7     0.60E-03   0.19E-05        4.9
    9     70       9     0.17E-03   0.11E-06        3.8
   10     71      10     0.87E-04   0.13E-07        1.8
  ----  ------  ------  ---------  ---------  --------- 
  Convergence criterion met

  Ground state a         -54.605464808562 a.u.
  <S2> =   0.7522

  ----------------------------------------------------------------------------
  Root   1         a              0.077569097 a.u.                2.1108 eV 
  <S2> =   0.7560
  ----------------------------------------------------------------------------
     Transition Moments    X -0.00000   Y  0.36155   Z -0.00000
     Transition Moments   XX -0.00000  XY -0.00000  XZ -0.00000
     Transition Moments   YY  0.00000  YZ  0.51408  ZZ -0.00000
     Dipole Oscillator Strength                    0.0067599209
     Electric Quadrupole                           0.0000000007
     Magnetic Dipole                               0.0000005562
     Total Oscillator Strength                     0.0067604778

     Occ.    4 beta  a   ---  Virt.    5 beta  a       -0.98902
     Occ.    4 beta  a   ---  Virt.    9 beta  a       -0.12401
  ----------------------------------------------------------------------------
  Root   2         a              0.317769918 a.u.                8.6470 eV 
  <S2> =   2.1515
  ----------------------------------------------------------------------------
     Transition Moments    X -0.00000   Y  0.00000   Z  0.23015
     Transition Moments   XX  0.36417  XY -0.00000  XZ -0.00000
     Transition Moments   YY  0.31782  YZ -0.00000  ZZ  0.05562
     Dipole Oscillator Strength                    0.0112215656
     Electric Quadrupole                           0.0000000047
     Magnetic Dipole                               0.0000000000
     Total Oscillator Strength                     0.0112215704

     Occ.    5 alpha a   ---  Virt.    6 alpha a        0.19739
     Occ.    5 alpha a   ---  Virt.    8 alpha a       -0.05105
     Occ.    4 beta  a   ---  Virt.    6 beta  a       -0.95731
     Occ.    4 beta  a   ---  Virt.   13 beta  a        0.13002
     Occ.    4 beta  a   ---  Virt.   14 beta  a       -0.12263
  ----------------------------------------------------------------------------
  Root   3         a              0.337566352 a.u.                9.1857 eV 
  <S2> =   0.7589
  ----------------------------------------------------------------------------
     Transition Moments    X  0.00000   Y -0.44646   Z -0.00000
     Transition Moments   XX  0.00000  XY  0.00000  XZ -0.00000
     Transition Moments   YY  0.00000  YZ  0.28117  ZZ  0.00000
     Dipole Oscillator Strength                    0.0448563812
     Electric Quadrupole                           0.0000000162
     Magnetic Dipole                               0.0000000515
     Total Oscillator Strength                     0.0448564489

     Occ.    4 alpha a   ---  Virt.    6 alpha a        0.97529
     Occ.    4 alpha a   ---  Virt.    8 alpha a        0.05384
     Occ.    4 alpha a   ---  Virt.   13 alpha a       -0.16615
     Occ.    4 alpha a   ---  Virt.   14 alpha a        0.11314
     Occ.    5 alpha a   ---  Virt.    9 alpha a       -0.05379
  ----------------------------------------------------------------------------
  Root   4         a              0.343735905 a.u.                9.3535 eV 
  <S2> =   1.3446
  ----------------------------------------------------------------------------
     Transition Moments    X -0.00000   Y -0.00000   Z  0.30766
     Transition Moments   XX  0.47248  XY  0.00000  XZ -0.00000
     Transition Moments   YY  0.62898  YZ -0.00000  ZZ -0.03880
     Dipole Oscillator Strength                    0.0216913948
     Electric Quadrupole                           0.0000000264
     Magnetic Dipole                               0.0000000000
     Total Oscillator Strength                     0.0216914212

     Occ.    5 alpha a   ---  Virt.    6 alpha a       -0.95494
     Occ.    5 alpha a   ---  Virt.   13 alpha a        0.14247
     Occ.    5 alpha a   ---  Virt.   14 alpha a       -0.10929
     Occ.    4 beta  a   ---  Virt.    6 beta  a       -0.20964
     Occ.    4 beta  a   ---  Virt.    8 beta  a       -0.08228
  ----------------------------------------------------------------------------
  Root   5         a              0.367013220 a.u.                9.9869 eV 
  <S2> =   0.7566
  ----------------------------------------------------------------------------
     Transition Moments    X -0.00000   Y -0.00000   Z -0.00000
     Transition Moments   XX -0.00000  XY  0.45379  XZ -0.00000
     Transition Moments   YY -0.00000  YZ  0.00000  ZZ  0.00000
     Dipole Oscillator Strength                    0.0000000000
     Electric Quadrupole                           0.0000000542
     Magnetic Dipole                               0.0000029280
     Total Oscillator Strength                     0.0000029822

     Occ.    4 alpha a   ---  Virt.    7 alpha a       -0.06975
     Occ.    3 beta  a   ---  Virt.    5 beta  a       -0.98733
     Occ.    3 beta  a   ---  Virt.    9 beta  a       -0.12732
  ----------------------------------------------------------------------------
  Root   6         a              0.393305473 a.u.               10.7024 eV 
  <S2> =   1.9008
  ----------------------------------------------------------------------------
     Transition Moments    X -0.24922   Y  0.00000   Z  0.00000
     Transition Moments   XX  0.00000  XY -0.00000  XZ -0.44428
     Transition Moments   YY  0.00000  YZ  0.00000  ZZ  0.00000
     Dipole Oscillator Strength                    0.0162858674
     Electric Quadrupole                           0.0000000640
     Magnetic Dipole                               0.0000000410
     Total Oscillator Strength                     0.0162859724

     Occ.    5 alpha a   ---  Virt.    7 alpha a       -0.06982
     Occ.    4 beta  a   ---  Virt.    7 beta  a        0.97157
     Occ.    4 beta  a   ---  Virt.   12 beta  a       -0.17572
     Occ.    4 beta  a   ---  Virt.   16 beta  a       -0.12036
  ----------------------------------------------------------------------------
  Root   7         a              0.410598098 a.u.               11.1729 eV 
  <S2> =   2.3973
  ----------------------------------------------------------------------------
     Transition Moments    X -0.00000   Y  0.00000   Z -0.13134
     Transition Moments   XX -0.28937  XY -0.00000  XZ -0.00000
     Transition Moments   YY -0.01266  YZ -0.00000  ZZ -0.64989
     Dipole Oscillator Strength                    0.0047220598
     Electric Quadrupole                           0.0000000376
     Magnetic Dipole                               0.0000000000
     Total Oscillator Strength                     0.0047220974

     Occ.    4 alpha a   ---  Virt.    9 alpha a        0.19639
     Occ.    5 alpha a   ---  Virt.    6 alpha a        0.10307
     Occ.    5 alpha a   ---  Virt.    8 alpha a        0.36572
     Occ.    5 alpha a   ---  Virt.   17 alpha a       -0.05935
     Occ.    4 beta  a   ---  Virt.    8 beta  a       -0.87472
     Occ.    4 beta  a   ---  Virt.   10 beta  a       -0.07057
     Occ.    4 beta  a   ---  Virt.   13 beta  a        0.12052
     Occ.    4 beta  a   ---  Virt.   14 beta  a        0.07673
     Occ.    4 beta  a   ---  Virt.   17 beta  a        0.07548
     Occ.    4 beta  a   ---  Virt.   20 beta  a        0.05047
  ----------------------------------------------------------------------------
  Root   8         a              0.420791960 a.u.               11.4503 eV 
  <S2> =   0.7557
  ----------------------------------------------------------------------------
     Transition Moments    X -0.00000   Y -0.00000   Z -0.00000
     Transition Moments   XX -0.00000  XY  0.52029  XZ -0.00000
     Transition Moments   YY -0.00000  YZ -0.00000  ZZ -0.00000
     Dipole Oscillator Strength                    0.0000000000
     Electric Quadrupole                           0.0000001074
     Magnetic Dipole                               0.0000001278
     Total Oscillator Strength                     0.0000002352

     Occ.    4 alpha a   ---  Virt.    7 alpha a       -0.98107
     Occ.    4 alpha a   ---  Virt.   12 alpha a        0.09138
     Occ.    4 alpha a   ---  Virt.   16 alpha a        0.12761
     Occ.    4 alpha a   ---  Virt.   18 alpha a        0.05320
     Occ.    3 beta  a   ---  Virt.    5 beta  a        0.07157
  ----------------------------------------------------------------------------
  Root   9         a              0.421623212 a.u.               11.4730 eV 
  <S2> =   1.5983
  ----------------------------------------------------------------------------
     Transition Moments    X -0.27315   Y  0.00000   Z  0.00000
     Transition Moments   XX  0.00000  XY -0.00000  XZ -0.45336
     Transition Moments   YY  0.00000  YZ  0.00000  ZZ  0.00000
     Dipole Oscillator Strength                    0.0209716894
     Electric Quadrupole                           0.0000000820
     Magnetic Dipole                               0.0000000464
     Total Oscillator Strength                     0.0209718179

     Occ.    5 alpha a   ---  Virt.    7 alpha a        0.97195
     Occ.    5 alpha a   ---  Virt.   12 alpha a       -0.16592
     Occ.    5 alpha a   ---  Virt.   16 alpha a       -0.12203
     Occ.    4 beta  a   ---  Virt.    7 beta  a        0.07998
  ----------------------------------------------------------------------------
  Root  10         a              0.432651226 a.u.               11.7730 eV 
  <S2> =   2.1468
  ----------------------------------------------------------------------------
     Transition Moments    X -0.00000   Y  0.06677   Z  0.00000
     Transition Moments   XX  0.00000  XY -0.00000  XZ -0.00000
     Transition Moments   YY  0.00000  YZ  0.07053  ZZ  0.00000
     Dipole Oscillator Strength                    0.0012858565
     Electric Quadrupole                           0.0000000021
     Magnetic Dipole                               0.0000000016
     Total Oscillator Strength                     0.0012858603

     Occ.    4 alpha a   ---  Virt.    8 alpha a       -0.35372
     Occ.    5 alpha a   ---  Virt.    9 alpha a       -0.29577
     Occ.    4 beta  a   ---  Virt.    5 beta  a       -0.12747
     Occ.    4 beta  a   ---  Virt.    9 beta  a        0.86794
     Occ.    4 beta  a   ---  Virt.   15 beta  a       -0.05025
     Occ.    4 beta  a   ---  Virt.   21 beta  a       -0.09352

              Target root =      1
          Target symmetry = none
      Ground state energy =    -54.605464808562
        Excitation energy =      0.077569096549
     Excited state energy =    -54.527895712013

  stored tddft:energy   -54.527895712012658     

 Task  times  cpu:       74.7s     wall:       86.3s


                                NWChem Input Module
                                -------------------


 Summary of allocated global arrays
-----------------------------------
  No active global arrays


MA_summarize_allocated_blocks: starting scan ...
heap block 'gridpts', handle 117, address 0x138e1428:
	type of elements:		double precision
	number of elements:		104752412
	address of client space:	0x138e1480
	index for client space:		12852711
	total number of bytes:		838019392
MA_summarize_allocated_blocks: scan completed: 1 heap block, 0 stack blocks
MA usage statistics:

	allocation statistics:
					      heap	     stack
					      ----	     -----
	current number of blocks	         1	         0
	maximum number of blocks	        18	        53
	current total bytes		 838019392	         0
	maximum total bytes		 838419104	  22513976
	maximum total K-bytes		    838420	     22514
	maximum total M-bytes		       839	        23


                                     CITATION
                                     --------
                Please cite the following reference when publishing
                           results obtained with NWChem:

          E. Apra, E. J. Bylaska, W. A. de Jong, N. Govind, K. Kowalski,
       T. P. Straatsma, M. Valiev, H. J. J. van Dam, Y. Alexeev, J. Anchell,
       V. Anisimov, F. W. Aquino, R. Atta-Fynn, J. Autschbach, N. P. Bauman,
     J. C. Becca, D. E. Bernholdt, K. Bhaskaran-Nair, S. Bogatko, P. Borowski,
         J. Boschen, J. Brabec, A. Bruner, E. Cauet, Y. Chen, G. N. Chuev,
      C. J. Cramer, J. Daily, M. J. O. Deegan, T. H. Dunning Jr., M. Dupuis,
   K. G. Dyall, G. I. Fann, S. A. Fischer, A. Fonari, H. Fruchtl, L. Gagliardi,
      J. Garza, N. Gawande, S. Ghosh, K. Glaesemann, A. W. Gotz, J. Hammond,
       V. Helms, E. D. Hermes, K. Hirao, S. Hirata, M. Jacquelin, L. Jensen,
   B. G. Johnson, H. Jonsson, R. A. Kendall, M. Klemm, R. Kobayashi, V. Konkov,
      S. Krishnamoorthy, M. Krishnan, Z. Lin, R. D. Lins, R. J. Littlefield,
      A. J. Logsdail, K. Lopata, W. Ma, A. V. Marenich, J. Martin del Campo,
   D. Mejia-Rodriguez, J. E. Moore, J. M. Mullin, T. Nakajima, D. R. Nascimento,
    J. A. Nichols, P. J. Nichols, J. Nieplocha, A. Otero-de-la-Roza, B. Palmer,
    A. Panyala, T. Pirojsirikul, B. Peng, R. Peverati, J. Pittner, L. Pollack,
   R. M. Richard, P. Sadayappan, G. C. Schatz, W. A. Shelton, D. W. Silverstein,
   D. M. A. Smith, T. A. Soares, D. Song, M. Swart, H. L. Taylor, G. S. Thomas,
            V. Tipparaju, D. G. Truhlar, K. Tsemekhman, T. Van Voorhis,
      A. Vazquez-Mayagoitia, P. Verma, O. Villa, A. Vishnu, K. D. Vogiatzis,
        D. Wang, J. H. Weare, M. J. Williamson, T. L. Windus, K. Wolinski,
        A. T. Wong, Q. Wu, C. Yang, Q. Yu, M. Zacharias, Z. Zhang, Y. Zhao,
                                and R. J. Harrison
                        "NWChem: Past, present, and future
                         J. Chem. Phys. 152, 184102 (2020)
                               doi:10.1063/5.0004997

                                      AUTHORS
                                      -------
  E. Apra, E. J. Bylaska, N. Govind, K. Kowalski, M. Valiev, D. Mejia-Rodriguez,
       A. Kunitsa, N. P. Bauman, A. Panyala, W. A. de Jong, T. P. Straatsma,
   H. J. J. van Dam, D. Wang, T. L. Windus, J. Hammond, J. Autschbach, A. Woods,
    K. Bhaskaran-Nair, J. Brabec, K. Lopata, S. A. Fischer, S. Krishnamoorthy,
     M. Jacquelin, W. Ma, M. Klemm, O. Villa, Y. Chen, V. Anisimov, F. Aquino,
     S. Hirata, M. T. Hackler, E. Hermes, L. Jensen, J. E. Moore, J. C. Becca,
      V. Konjkov, T. Risthaus, M. Malagoli, A. Marenich, A. Otero-de-la-Roza,
        J. Mullin, P. Nichols, R. Peverati, J. Pittner, Y. Zhao, P.-D. Fan,
        A. Fonari, M. J. Williamson, R. J. Harrison, J. R. Rehr, M. Dupuis,
     D. Silverstein, D. M. A. Smith, J. Nieplocha, V. Tipparaju, M. Krishnan,
     B. E. Van Kuiken, A. Vazquez-Mayagoitia, M. Swart, Q. Wu, T. Van Voorhis,
     A. A. Auer, M. Nooijen, L. D. Crosby, E. Brown, G. Cisneros, G. I. Fann,
   H. Fruchtl, J. Garza, K. Hirao, R. A. Kendall, J. A. Nichols, K. Tsemekhman,
    K. Wolinski, J. Anchell, D. E. Bernholdt, P. Borowski, T. Clark, D. Clerc,
   H. Dachsel, M. J. O. Deegan, K. Dyall, D. Elwood, E. Glendening, M. Gutowski,
   A. C. Hess, J. Jaffe, B. G. Johnson, J. Ju, R. Kobayashi, R. Kutteh, Z. Lin,
   R. Littlefield, X. Long, B. Meng, T. Nakajima, S. Niu, L. Pollack, M. Rosing,
   K. Glaesemann, G. Sandrone, M. Stave, H. Taylor, G. Thomas, J. H. van Lenthe,
                               A. T. Wong, Z. Zhang.

 Total times  cpu:       74.7s     wall:       86.6s
