 argument  1 = /home/aditisingh4812/nw_chem/nwchem-run/nwchem-run/tddft/open/gdd_open/geom-MOL/oh.nw
                                         
                                         


             Northwest Computational Chemistry Package (NWChem) 7.2.3
             --------------------------------------------------------


                    Environmental Molecular Sciences Laboratory
                       Pacific Northwest National Laboratory
                                Richland, WA 99352

                              Copyright (c) 1994-2022
                       Pacific Northwest National Laboratory
                            Battelle Memorial Institute

             NWChem is an open-source computational chemistry package
                        distributed under the terms of the
                      Educational Community License (ECL) 2.0
             A copy of the license is included with this distribution
                              in the LICENSE.TXT file

                                  ACKNOWLEDGMENT
                                  --------------

            This software and its documentation were developed at the
            EMSL at Pacific Northwest National Laboratory, a multiprogram
            national laboratory, operated for the U.S. Department of Energy
            by Battelle under Contract Number DE-AC05-76RL01830. Support
            for this work was provided by the Department of Energy Office
            of Biological and Environmental Research, Office of Basic
            Energy Sciences, and the Office of Advanced Scientific Computing.


           Job information
           ---------------

    hostname        = p17
    program         = /home/aditisingh4812/nw_chem/nwchem-7.2.3-release.revision-d690e065-srconly.2024-08-27/nwchem-7.2.3/bin/LINUX64/nwchem
    date            = Thu May  8 12:18:11 2025

    compiled        = Mon_Apr_07_18:51:54_2025
    source          = /home/aditisingh4812/nw_chem/nwchem-7.2.3-release.revision-d690e065-srconly.2024-08-27/nwchem-7.2.3
    nwchem branch   = 7.2.3
    nwchem revision = d690e065
    ga revision     = 5.8.0
    use scalapack   = F
    input           = /home/aditisingh4812/nw_chem/nwchem-run/nwchem-run/tddft/open/gdd_open/geom-MOL/oh.nw
    prefix          = oh.
    data base       = ./oh.db
    status          = startup
    nproc           =       72
    time left       =     -1s



           Memory information
           ------------------

    heap     =  262143998 doubles =   2000.0 Mbytes
    stack    =  262143995 doubles =   2000.0 Mbytes
    global   =  655360000 doubles =   5000.0 Mbytes (distinct from heap & stack)
    total    = 1179647993 doubles =   9000.0 Mbytes
    verify   = yes
    hardfail = no 


           Directory information
           ---------------------

  0 permanent = .
  0 scratch   = .




                                NWChem Input Module
                                -------------------



 Scaling coordinates for geometry "geometry" by  1.889725989
 (inverse scale =  0.529177249)



                             Geometry "geometry" -> ""
                             -------------------------

 Output coordinates in angstroms (scale by  1.889725989 to convert to a.u.)

  No.       Tag          Charge          X              Y              Z
 ---- ---------------- ---------- -------------- -------------- --------------
    1 O                    8.0000     0.00000000     0.00000000    -0.20366278
    2 H                    1.0000     0.00000000     0.00000000     1.62930222

      Atomic Mass 
      ----------- 

      O                 15.994910
      H                  1.007825


 Effective nuclear repulsion energy (a.u.)       2.3096011064

            Nuclear Dipole moment (a.u.) 
            ----------------------------
        X                 Y               Z
 ---------------- ---------------- ----------------
     0.0000000000     0.0000000000     0.0000000000


            XYZ format geometry
            -------------------
     2
 geometry
 O                     0.00000000     0.00000000    -0.20366278
 H                     0.00000000     0.00000000     1.62930222



 Summary of "ao basis" -> "" (cartesian)
 ------------------------------------------------------------------------------
       Tag                 Description            Shells   Functions and Types
 ---------------- ------------------------------  ------  ---------------------
 *                         def2-TZVPD                 on all atoms 


  pbe96 is a nonlocal functional; adding pw91lda local functional. 

                                 NWChem DFT Module
                                 -----------------


                      Basis "ao basis" -> "ao basis" (cartesian)
                      -----
  O (Oxygen)
  ----------
            Exponent  Coefficients 
       -------------- ---------------------------------------------------------
  1 S  2.70323826E+04  0.000217
  1 S  4.05238714E+03  0.001684
  1 S  9.22327227E+02  0.008740
  1 S  2.61240710E+02  0.035240
  1 S  8.53546414E+01  0.111535
  1 S  3.10350352E+01  0.255890

  2 S  1.22608607E+01  0.397687
  2 S  4.99870760E+00  0.246278

  3 S  1.17031082E+00  1.000000

  4 S  4.64747410E-01  1.000000

  5 S  1.85045364E-01  1.000000

  6 S  7.02880263E-02  1.000000

  7 P  6.32749548E+01  0.006069
  7 P  1.46270494E+01  0.041913
  7 P  4.45012235E+00  0.161538
  7 P  1.52757996E+00  0.357070

  8 P  5.29351179E-01  1.000000

  9 P  1.74784213E-01  1.000000

 10 P  5.11127457E-02  1.000000

 11 D  2.31400000E+00  1.000000

 12 D  6.45000000E-01  1.000000

 13 D  1.46964774E-01  1.000000

 14 F  1.42800000E+00  1.000000

  H (Hydrogen)
  ------------
            Exponent  Coefficients 
       -------------- ---------------------------------------------------------
  1 S  3.40613410E+01  0.006025
  1 S  5.12357460E+00  0.045021
  1 S  1.16466260E+00  0.201897

  2 S  3.27230410E-01  1.000000

  3 S  1.03072410E-01  1.000000

  4 P  8.00000000E-01  1.000000

  5 P  9.57741296E-02  1.000000



 Summary of "ao basis" -> "ao basis" (cartesian)
 ------------------------------------------------------------------------------
       Tag                 Description            Shells   Functions and Types
 ---------------- ------------------------------  ------  ---------------------
 O                         def2-TZVPD               14       46   6s4p3d1f
 H                         def2-TZVPD                5        9   3s2p




 Summary of "ao basis" -> "ao basis" (cartesian)
 ------------------------------------------------------------------------------
       Tag                 Description            Shells   Functions and Types
 ---------------- ------------------------------  ------  ---------------------
 O                         def2-TZVPD               14       46   6s4p3d1f
 H                         def2-TZVPD                5        9   3s2p


  int_init: cando_txs set to always be  F
  Caching 1-el integrals 

            General Information
            -------------------
          SCF calculation type: DFT
          Wavefunction type:  spin polarized.
          No. of atoms     :     2
          No. of electrons :     9
           Alpha electrons :     5
            Beta electrons :     4
          Charge           :     0
          Spin multiplicity:     2
          Use of symmetry is: off; symmetry adaption is: off
          Maximum number of iterations:  50
          AO basis - number of functions:    55
                     number of shells:    19
          Convergence on energy requested:  1.00D-06
          Convergence on density requested:  1.00D-05
          Convergence on gradient requested:  5.00D-04

              XC Information
              --------------
                     Hartree-Fock (Exact) Exchange  1.000          
                     LC-wPBE(h)Exchange Functional  1.000          
            Perdew 1991 LDA Correlation Functional  1.000 local    
           PerdewBurkeErnz. Correlation Functional  1.000 non-local

           Range-Separation Parameters        
           ---------------------------
           Alpha           :  0.00
           Beta            :  1.00
           Gamma           :  0.37
           Short-Range HF  :     F

             Grid Information
             ----------------
          Grid used for XC integration:  xfine     
          Radial quadrature: Mura-Knowles        
          Angular quadrature: Lebedev. 
          Tag              B.-S. Rad. Rad. Pts. Rad. Cut. Ang. Pts.
          ---              ---------- --------- --------- ---------
          O                   0.60      100          10.0      1454
          H                   0.35      100          10.0      1202
          Grid pruning is: on 
          Number of quadrature shells:   200
          Spatial weights used:  Erf1

          Convergence Information
          -----------------------
          Convergence aids based upon iterative change in 
          total energy or number of iterations. 
          Levelshifting, if invoked, occurs when the 
          HOMO/LUMO gap drops below (HL_TOL):  1.00D-02
          DIIS, if invoked, will attempt to extrapolate 
          using up to (NFOCK): 10 stored Fock matrices.

                    Damping( 0%)  Levelshifting(0.5)       DIIS
                  --------------- ------------------- ---------------
          dE  on:    start            ASAP                start   
          dE off:    2 iters         50 iters            50 iters 


      Screening Tolerance Information
      -------------------------------
          Density screening/tol_rho:  1.00D-10
          AO Gaussian exp screening on grid/accAOfunc:  14
          CD Gaussian exp screening on grid/accCDfunc:  20
          XC Gaussian exp screening on grid/accXCfunc:  20
          Schwarz screening/accCoul:  1.00D-08

  
  CAM type calculations without CDFIT are
  only available with the direct option.
  Forcing Direct SCF
  

      Superposition of Atomic Density Guess
      -------------------------------------

 Sum of atomic energies:         -75.28423846

      Non-variational initial energy
      ------------------------------

 Total energy =     -74.674335
 1-e energy   =    -108.335033
 2-e energy   =      31.351097
 HOMO         =      -0.379510
 LUMO         =      -0.126613

  WARNING: movecs_in_org=atomic not equal to movecs_in=./oh.movecs
   Time after variat. SCF:      0.6
   Time prior to 1st pass:      0.6

 Grid_pts file          = ./oh.gridpts.00
 Record size in doubles =  12289        No. of grid_pts per rec  =   3070
 Max. records in memory =      3        Max. recs in file   =  14072920


           Memory utilization after 1st SCF pass: 
           Heap Space remaining (MW):      157.35           157354422
          Stack Space remaining (MW):      262.14           262143412

   convergence    iter        energy       DeltaE   RMS-Dens  Diis-err    time
 ---------------- ----- ----------------- --------- --------- ---------  ------
 d= 0,ls=0.0,diis     1    -75.4848092262 -7.78D+01  4.87D-03  1.38D-01     0.9
                                                     5.19D-03  1.26D-01
 d= 0,ls=0.0,diis     2    -75.4880937870 -3.28D-03  2.96D-03  1.75D-01     1.2
                                                     2.57D-03  1.15D-01
 d= 0,ls=0.0,diis     3    -75.5469022857 -5.88D-02  6.76D-04  1.07D-02     1.5
                                                     9.63D-04  1.33D-02
 d= 0,ls=0.0,diis     4    -75.5525056541 -5.60D-03  2.57D-04  2.10D-04     1.8
                                                     3.65D-04  3.18D-04
 d= 0,ls=0.0,diis     5    -75.5534459089 -9.40D-04  2.12D-04  2.82D-04     2.1
                                                     2.23D-04  2.06D-04
  Resetting Diis
 d= 0,ls=0.0,diis     6    -75.5541675341 -7.22D-04  1.69D-03  3.18D-04     2.4
                                                     1.59D-03  2.47D-04
 d= 0,ls=0.0,diis     7    -75.5505200652  3.65D-03  2.69D-04  2.47D-04     2.8
                                                     1.03D-04  4.68D-05
 d= 0,ls=0.0,diis     8    -75.5505428351 -2.28D-05  7.52D-05  2.87D-04     3.1
                                                     1.26D-04  4.40D-04
 d= 0,ls=0.0,diis     9    -75.5507193294 -1.76D-04  6.97D-05  1.66D-05     3.4
                                                     8.67D-05  3.81D-05
 d= 0,ls=0.0,diis    10    -75.5508060086 -8.67D-05  3.79D-04  2.79D-05     3.7
                                                     3.76D-04  3.47D-05
 d= 0,ls=0.0,diis    11    -75.5504834913  3.23D-04  3.18D-04  1.52D-05     4.0
                                                     3.19D-04  4.78D-06
 d= 0,ls=0.0,diis    12    -75.5503875953  9.59D-05  4.51D-05  2.62D-06     4.3
                                                     5.49D-05  3.53D-07
 d= 0,ls=0.0,diis    13    -75.5503864831  1.11D-06  4.58D-06  1.82D-08     4.6
                                                     6.04D-06  7.34D-09
 d= 0,ls=0.0,diis    14    -75.5503864838 -7.29D-10  6.86D-07  2.12D-09     5.0
                                                     9.52D-07  2.72D-09


         Total DFT energy =      -75.550386483839
      One electron energy =     -108.731405779998
           Coulomb energy =       39.484066285343
    Exchange-Corr. energy =       -8.612648095586
 Nuclear repulsion energy =        2.309601106403

 Numeric. integr. density =        8.999999989770

     Total iterative time =      4.4s



                    DFT Final Alpha Molecular Orbital Analysis
                    ------------------------------------------

 Vector    1  Occ=1.000000D+00  E=-1.905017D+01
              MO Center= -1.1D-12, -1.0D-12, -2.0D-01, r^2= 1.5D-02
   Bfn.  Coefficient  Atom+Function         Bfn.  Coefficient  Atom+Function  
  ----- ------------  ---------------      ----- ------------  ---------------
     2      0.632886  1 O  s                  1      0.435929  1 O  s          
     4     -0.106364  1 O  s                  3      0.096463  1 O  s          

 Vector    2  Occ=1.000000D+00  E=-1.050914D+00
              MO Center= -5.0D-11, -3.6D-11, -1.7D-01, r^2= 4.8D-01
   Bfn.  Coefficient  Atom+Function         Bfn.  Coefficient  Atom+Function  
  ----- ------------  ---------------      ----- ------------  ---------------
     4      0.452934  1 O  s                  3      0.405534  1 O  s          
     2     -0.253114  1 O  s                  5      0.215101  1 O  s          
     1     -0.109672  1 O  s                 48      0.031234  2 H  s          
    25      0.030062  1 O  dxx        

 Vector    3  Occ=1.000000D+00  E=-5.221422D-01
              MO Center=  4.2D-11,  4.7D-11, -1.9D-01, r^2= 5.7D-01
   Bfn.  Coefficient  Atom+Function         Bfn.  Coefficient  Atom+Function  
  ----- ------------  ---------------      ----- ------------  ---------------
     7      0.516964  1 O  px                10      0.426959  1 O  px         
    13      0.248016  1 O  px         

 Vector    4  Occ=1.000000D+00  E=-4.801376D-01
              MO Center=  1.4D-11, -1.2D-11,  5.9D-01, r^2= 1.5D+00
   Bfn.  Coefficient  Atom+Function         Bfn.  Coefficient  Atom+Function  
  ----- ------------  ---------------      ----- ------------  ---------------
     9      0.342852  1 O  pz                48      0.305366  2 H  s          
    12      0.285719  1 O  pz                15      0.201126  1 O  pz         
    49      0.167235  2 H  s                 47      0.156983  2 H  s          
     4     -0.085829  1 O  s                  3     -0.055935  1 O  s          
     6      0.040658  1 O  s                  2      0.033378  1 O  s          

 Vector    5  Occ=1.000000D+00  E=-4.437928D-01
              MO Center=  4.1D-11,  2.5D-11, -1.9D-01, r^2= 6.4D-01
   Bfn.  Coefficient  Atom+Function         Bfn.  Coefficient  Atom+Function  
  ----- ------------  ---------------      ----- ------------  ---------------
     8      0.500288  1 O  py                11      0.414557  1 O  py         
    14      0.278653  1 O  py                17      0.037683  1 O  py         

 Vector    6  Occ=0.000000D+00  E=-9.145526D-02
              MO Center=  4.1D-10,  3.7D-10,  9.4D-01, r^2= 2.1D+00
   Bfn.  Coefficient  Atom+Function         Bfn.  Coefficient  Atom+Function  
  ----- ------------  ---------------      ----- ------------  ---------------
     6      0.363391  1 O  s                  9     -0.355040  1 O  pz         
    48      0.339060  2 H  s                 49      0.334401  2 H  s          
    12     -0.300557  1 O  pz                15     -0.214838  1 O  pz         
    47      0.170939  2 H  s                 55      0.154052  2 H  pz         
     5     -0.132501  1 O  s                  3     -0.074811  1 O  s          

 Vector    7  Occ=0.000000D+00  E= 1.156842D-01
              MO Center= -4.3D-09, -2.1D-09, -1.3D+00, r^2= 6.6D+00
   Bfn.  Coefficient  Atom+Function         Bfn.  Coefficient  Atom+Function  
  ----- ------------  ---------------      ----- ------------  ---------------
     6      3.310927  1 O  s                  5     -1.103411  1 O  s          
    36     -1.031175  1 O  dzz               34     -0.875878  1 O  dyy        
    31     -0.858856  1 O  dxx               18     -0.767902  1 O  pz         
    49      0.452097  2 H  s                 55     -0.425857  2 H  pz         
     3     -0.364450  1 O  s                 25     -0.228078  1 O  dxx        

 Vector    8  Occ=0.000000D+00  E= 1.277919D-01
              MO Center= -6.3D-09, -8.6D-11,  5.7D-02, r^2= 8.0D+00
   Bfn.  Coefficient  Atom+Function         Bfn.  Coefficient  Atom+Function  
  ----- ------------  ---------------      ----- ------------  ---------------
    16      1.100555  1 O  px                13     -0.405569  1 O  px         
    53      0.143976  2 H  px                 7     -0.130765  1 O  px         
    10      0.055250  1 O  px                17      0.046802  1 O  py         
    37     -0.038207  1 O  fxxx              42     -0.035131  1 O  fxzz       
    40     -0.034433  1 O  fxyy              33      0.029634  1 O  dxz        

 Vector    9  Occ=0.000000D+00  E= 1.354530D-01
              MO Center=  1.8D-09, -4.0D-08,  6.9D-02, r^2= 8.0D+00
   Bfn.  Coefficient  Atom+Function         Bfn.  Coefficient  Atom+Function  
  ----- ------------  ---------------      ----- ------------  ---------------
    17      1.105073  1 O  py                14     -0.443255  1 O  py         
    54      0.154350  2 H  py                 8     -0.140686  1 O  py         
    11      0.055031  1 O  py                16     -0.046995  1 O  px         
    38     -0.041479  1 O  fxxy              45     -0.037997  1 O  fyzz       
    43     -0.037090  1 O  fyyy       

 Vector   10  Occ=0.000000D+00  E= 1.382396D-01
              MO Center=  8.5D-09,  4.2D-08,  9.1D-01, r^2= 8.9D+00
   Bfn.  Coefficient  Atom+Function         Bfn.  Coefficient  Atom+Function  
  ----- ------------  ---------------      ----- ------------  ---------------
     6      3.998593  1 O  s                 49     -2.141841  2 H  s          
    18      1.661253  1 O  pz                55      0.891686  2 H  pz         
     5     -0.729726  1 O  s                 34     -0.685628  1 O  dyy        
    31     -0.672902  1 O  dxx               36     -0.301658  1 O  dzz        
    15      0.277414  1 O  pz                 3     -0.193678  1 O  s          

 Vector   11  Occ=0.000000D+00  E= 2.210789D-01
              MO Center= -5.1D-12,  4.1D-11,  1.2D+00, r^2= 6.2D+00
   Bfn.  Coefficient  Atom+Function         Bfn.  Coefficient  Atom+Function  
  ----- ------------  ---------------      ----- ------------  ---------------
    53      1.281510  2 H  px                16     -0.887664  1 O  px         
    33     -0.144522  1 O  dxz               54      0.054497  2 H  py         
    27      0.038247  1 O  dxz               17     -0.037749  1 O  py         
    13      0.025810  1 O  px         

 Vector   12  Occ=0.000000D+00  E= 2.239449D-01
              MO Center=  2.9D-11, -1.8D-10,  1.2D+00, r^2= 6.3D+00
   Bfn.  Coefficient  Atom+Function         Bfn.  Coefficient  Atom+Function  
  ----- ------------  ---------------      ----- ------------  ---------------
    54      1.286845  2 H  py                17     -0.896997  1 O  py         
    35     -0.159475  1 O  dyz               53     -0.054724  2 H  px         
    16      0.038146  1 O  px                29      0.036366  1 O  dyz        
    14      0.027054  1 O  py                11     -0.025982  1 O  py         

 Vector   13  Occ=0.000000D+00  E= 2.302011D-01
              MO Center=  1.9D-10,  2.9D-10,  1.8D+00, r^2= 6.0D+00
   Bfn.  Coefficient  Atom+Function         Bfn.  Coefficient  Atom+Function  
  ----- ------------  ---------------      ----- ------------  ---------------
    55      1.562904  2 H  pz                 5      0.779677  1 O  s          
    15      0.752924  1 O  pz                18     -0.579176  1 O  pz         
    36      0.340353  1 O  dzz               48     -0.300440  2 H  s          
    49     -0.266856  2 H  s                  9      0.157762  1 O  pz         
    34      0.154518  1 O  dyy               31      0.143195  1 O  dxx        

 Vector   14  Occ=0.000000D+00  E= 4.315293D-01
              MO Center=  2.6D-09,  2.3D-09, -5.0D-01, r^2= 6.1D+00
   Bfn.  Coefficient  Atom+Function         Bfn.  Coefficient  Atom+Function  
  ----- ------------  ---------------      ----- ------------  ---------------
     6      4.449728  1 O  s                 36     -2.531461  1 O  dzz        
    31     -2.308130  1 O  dxx               34     -2.051895  1 O  dyy        
    49      1.831224  2 H  s                  5     -1.222893  1 O  s          
    55     -1.144886  2 H  pz                 4      0.929540  1 O  s          
     3     -0.615255  1 O  s                 28     -0.597852  1 O  dyy        

 Vector   15  Occ=0.000000D+00  E= 4.638275D-01
              MO Center=  2.8D-10,  4.5D-10, -2.0D-01, r^2= 3.4D+00
   Bfn.  Coefficient  Atom+Function         Bfn.  Coefficient  Atom+Function  
  ----- ------------  ---------------      ----- ------------  ---------------
    32      1.736486  1 O  dxy               31     -0.073981  1 O  dxx        
    34      0.073981  1 O  dyy               20      0.036872  1 O  dxy        
    26     -0.033067  1 O  dxy        

 Vector   16  Occ=0.000000D+00  E= 4.644607D-01
              MO Center=  1.0D-10, -1.9D-11, -2.2D-01, r^2= 3.4D+00
   Bfn.  Coefficient  Atom+Function         Bfn.  Coefficient  Atom+Function  
  ----- ------------  ---------------      ----- ------------  ---------------
    34      1.086590  1 O  dyy               31     -0.625607  1 O  dxx        
    49     -0.588969  2 H  s                 36      0.433937  1 O  dzz        
     6     -0.294443  1 O  s                 55      0.245688  2 H  pz         
    18      0.205610  1 O  pz                32     -0.145892  1 O  dxy        
     4     -0.114323  1 O  s                  5      0.112448  1 O  s          

 Vector   17  Occ=0.000000D+00  E= 5.151967D-01
              MO Center=  5.5D-10,  3.7D-10,  9.2D-01, r^2= 5.7D+00
   Bfn.  Coefficient  Atom+Function         Bfn.  Coefficient  Atom+Function  
  ----- ------------  ---------------      ----- ------------  ---------------
     6      5.035404  1 O  s                 49     -4.938264  2 H  s          
    18      1.610363  1 O  pz                55      1.489742  2 H  pz         
    48      1.370301  2 H  s                 34     -1.158386  1 O  dyy        
    31     -1.044594  1 O  dxx               15      0.759141  1 O  pz         
     5     -0.354674  1 O  s                  4      0.277894  1 O  s          

 Vector   18  Occ=0.000000D+00  E= 5.335538D-01
              MO Center= -3.0D-10,  1.5D-10, -2.7D-02, r^2= 4.3D+00
   Bfn.  Coefficient  Atom+Function         Bfn.  Coefficient  Atom+Function  
  ----- ------------  ---------------      ----- ------------  ---------------
    33      2.198778  1 O  dxz               53     -0.918328  2 H  px         
    16      0.447593  1 O  px                13      0.138450  1 O  px         
    35      0.093507  1 O  dyz               10     -0.065055  1 O  px         
    21      0.039591  1 O  dxz               54     -0.039053  2 H  py         
    27     -0.025632  1 O  dxz        

 Vector   19  Occ=0.000000D+00  E= 5.436793D-01
              MO Center=  9.0D-11, -2.4D-10, -4.5D-02, r^2= 4.3D+00
   Bfn.  Coefficient  Atom+Function         Bfn.  Coefficient  Atom+Function  
  ----- ------------  ---------------      ----- ------------  ---------------
    35      2.204984  1 O  dyz               54     -0.910425  2 H  py         
    17      0.449054  1 O  py                14      0.126886  1 O  py         
    33     -0.093770  1 O  dxz               11     -0.060229  1 O  py         
    23      0.039455  1 O  dyz               29     -0.038788  1 O  dyz        
    53      0.038717  2 H  px                51      0.025056  2 H  py         

 Vector   20  Occ=0.000000D+00  E= 5.735707D-01
              MO Center=  4.7D-10,  5.8D-11, -3.9D-01, r^2= 3.9D+00
   Bfn.  Coefficient  Atom+Function         Bfn.  Coefficient  Atom+Function  
  ----- ------------  ---------------      ----- ------------  ---------------
    36      1.188291  1 O  dzz               48     -0.974282  2 H  s          
    49      0.588475  2 H  s                 34     -0.548997  1 O  dyy        
    15     -0.505337  1 O  pz                55     -0.506444  2 H  pz         
    31     -0.478205  1 O  dxx               18      0.399360  1 O  pz         
     5     -0.317517  1 O  s                 12      0.228625  1 O  pz         

 Vector   21  Occ=0.000000D+00  E= 6.286405D-01
              MO Center= -3.7D-09, -1.2D-09, -1.9D-01, r^2= 3.6D+00
   Bfn.  Coefficient  Atom+Function         Bfn.  Coefficient  Atom+Function  
  ----- ------------  ---------------      ----- ------------  ---------------
    13      1.803474  1 O  px                10     -1.078223  1 O  px         
    16     -0.698794  1 O  px                 7     -0.267112  1 O  px         
    40      0.178115  1 O  fxyy              42      0.176477  1 O  fxzz       
    37      0.170747  1 O  fxxx              53     -0.089767  2 H  px         
    14      0.076697  1 O  py                11     -0.045854  1 O  py         

 Vector   22  Occ=0.000000D+00  E= 6.560026D-01
              MO Center= -6.4D-10, -2.3D-09, -1.8D-01, r^2= 3.5D+00
   Bfn.  Coefficient  Atom+Function         Bfn.  Coefficient  Atom+Function  
  ----- ------------  ---------------      ----- ------------  ---------------
    14      1.805219  1 O  py                11     -1.124780  1 O  py         
    17     -0.681351  1 O  py                 8     -0.271674  1 O  py         
    43      0.184339  1 O  fyyy              45      0.182574  1 O  fyzz       
    38      0.176205  1 O  fxxy              54     -0.094354  2 H  py         
    13     -0.076771  1 O  px                10      0.047834  1 O  px         

 Vector   23  Occ=0.000000D+00  E= 7.981486D-01
              MO Center= -9.7D-11, -1.1D-10,  7.1D-01, r^2= 3.2D+00
   Bfn.  Coefficient  Atom+Function         Bfn.  Coefficient  Atom+Function  
  ----- ------------  ---------------      ----- ------------  ---------------
    15      2.777528  1 O  pz                49     -2.482356  2 H  s          
     6      1.538373  1 O  s                 55      1.523157  2 H  pz         
    12     -1.249679  1 O  pz                 5      1.169472  1 O  s          
    36      0.950926  1 O  dzz               48     -0.396718  2 H  s          
     3     -0.374457  1 O  s                 34     -0.284373  1 O  dyy        

 Vector   24  Occ=0.000000D+00  E= 1.141575D+00
              MO Center=  5.1D-11,  5.3D-11, -4.5D-01, r^2= 3.7D+00
   Bfn.  Coefficient  Atom+Function         Bfn.  Coefficient  Atom+Function  
  ----- ------------  ---------------      ----- ------------  ---------------
     6      4.432283  1 O  s                  5      4.168689  1 O  s          
    36     -3.260166  1 O  dzz               31     -2.768030  1 O  dxx        
    34     -2.755963  1 O  dyy                3     -2.363213  1 O  s          
    28     -1.597541  1 O  dyy               25     -1.585616  1 O  dxx        
    30     -1.566961  1 O  dzz               49      1.153444  2 H  s          

 Vector   25  Occ=0.000000D+00  E= 1.610891D+00
              MO Center=  9.7D-10,  9.1D-11,  1.6D+00, r^2= 9.5D-01
   Bfn.  Coefficient  Atom+Function         Bfn.  Coefficient  Atom+Function  
  ----- ------------  ---------------      ----- ------------  ---------------
    50      1.051723  2 H  px                53     -0.331437  2 H  px         
    33     -0.259833  1 O  dxz               27      0.189734  1 O  dxz        
    16      0.149658  1 O  px                13     -0.101098  1 O  px         
     7      0.049813  1 O  px                51      0.044725  2 H  py         
    42      0.037358  1 O  fxzz       

 Vector   26  Occ=0.000000D+00  E= 1.613147D+00
              MO Center=  1.5D-11,  8.2D-10,  1.6D+00, r^2= 9.4D-01
   Bfn.  Coefficient  Atom+Function         Bfn.  Coefficient  Atom+Function  
  ----- ------------  ---------------      ----- ------------  ---------------
    51      1.052857  2 H  py                54     -0.334489  2 H  py         
    35     -0.248760  1 O  dyz               29      0.166454  1 O  dyz        
    17      0.154356  1 O  py                14     -0.111765  1 O  py         
     8      0.045528  1 O  py                50     -0.044774  2 H  px         
    45      0.032827  1 O  fyzz       

 Vector   27  Occ=0.000000D+00  E= 1.669538D+00
              MO Center= -8.1D-11, -2.8D-10,  3.6D-01, r^2= 2.2D+00
   Bfn.  Coefficient  Atom+Function         Bfn.  Coefficient  Atom+Function  
  ----- ------------  ---------------      ----- ------------  ---------------
    49      1.938707  2 H  s                  6     -1.689062  1 O  s          
    15     -1.336296  1 O  pz                30      1.263390  1 O  dzz        
    36     -0.957189  1 O  dzz                5     -0.803007  1 O  s          
    31      0.757799  1 O  dxx               52     -0.735648  2 H  pz         
     4     -0.669767  1 O  s                 12      0.636485  1 O  pz         

 Vector   28  Occ=0.000000D+00  E= 1.770317D+00
              MO Center= -4.3D-11, -7.7D-11, -2.0D-01, r^2= 1.1D+00
   Bfn.  Coefficient  Atom+Function         Bfn.  Coefficient  Atom+Function  
  ----- ------------  ---------------      ----- ------------  ---------------
    26      1.886621  1 O  dxy               32     -0.772810  1 O  dxy        
    25     -0.080374  1 O  dxx               28      0.080374  1 O  dyy        
    31      0.032924  1 O  dxx               34     -0.032923  1 O  dyy        

 Vector   29  Occ=0.000000D+00  E= 1.773281D+00
              MO Center= -9.0D-11,  9.8D-11, -1.6D-01, r^2= 1.2D+00
   Bfn.  Coefficient  Atom+Function         Bfn.  Coefficient  Atom+Function  
  ----- ------------  ---------------      ----- ------------  ---------------
    25      1.001607  1 O  dxx               28     -0.852803  1 O  dyy        
    34      0.541032  1 O  dyy               49      0.390858  2 H  s          
     6     -0.386255  1 O  s                 15     -0.298393  1 O  pz         
     5     -0.270546  1 O  s                 30      0.232206  1 O  dzz        
    31     -0.217625  1 O  dxx               52     -0.186972  2 H  pz         

 Vector   30  Occ=0.000000D+00  E= 1.793843D+00
              MO Center= -7.9D-10, -3.7D-11, -1.9D-01, r^2= 1.2D+00
   Bfn.  Coefficient  Atom+Function         Bfn.  Coefficient  Atom+Function  
  ----- ------------  ---------------      ----- ------------  ---------------
    27      1.914112  1 O  dxz               33     -1.031765  1 O  dxz        
    53      0.297831  2 H  px                16     -0.148812  1 O  px         
    29      0.081401  1 O  dyz               50     -0.080169  2 H  px         
    35     -0.043878  1 O  dyz               13     -0.038017  1 O  px         
    10      0.031043  1 O  px         

 Vector   31  Occ=0.000000D+00  E= 1.836518D+00
              MO Center=  3.9D-12, -6.3D-10, -2.0D-01, r^2= 1.2D+00
   Bfn.  Coefficient  Atom+Function         Bfn.  Coefficient  Atom+Function  
  ----- ------------  ---------------      ----- ------------  ---------------
    29      1.919954  1 O  dyz               35     -1.020789  1 O  dyz        
    54      0.289065  2 H  py                17     -0.145265  1 O  py         
    27     -0.081650  1 O  dxz               51     -0.067128  2 H  py         
    33      0.043411  1 O  dxz               14     -0.036648  1 O  py         
    11      0.026990  1 O  py         

 Vector   32  Occ=0.000000D+00  E= 2.004660D+00
              MO Center=  1.5D-10,  1.5D-10,  8.9D-01, r^2= 1.7D+00
   Bfn.  Coefficient  Atom+Function         Bfn.  Coefficient  Atom+Function  
  ----- ------------  ---------------      ----- ------------  ---------------
    49      1.432549  2 H  s                 15     -1.081923  1 O  pz         
     6     -0.935126  1 O  s                 52     -0.882048  2 H  pz         
     5     -0.683415  1 O  s                 12      0.666829  1 O  pz         
    30     -0.524181  1 O  dzz               28      0.490080  1 O  dyy        
    48     -0.474480  2 H  s                 47      0.450778  2 H  s          

 Vector   33  Occ=0.000000D+00  E= 2.180383D+00
              MO Center= -1.8D-09,  1.7D-10, -2.0D-01, r^2= 1.6D+00
   Bfn.  Coefficient  Atom+Function         Bfn.  Coefficient  Atom+Function  
  ----- ------------  ---------------      ----- ------------  ---------------
    10      2.993817  1 O  px                13     -1.387817  1 O  px         
     7     -1.052733  1 O  px                37     -0.804427  1 O  fxxx       
    40     -0.807205  1 O  fxyy              42     -0.800370  1 O  fxzz       
    16      0.368262  1 O  px                11      0.127319  1 O  py         
    50      0.068552  2 H  px                14     -0.059020  1 O  py         

 Vector   34  Occ=0.000000D+00  E= 2.229145D+00
              MO Center=  3.7D-10, -3.1D-09, -2.0D-01, r^2= 1.5D+00
   Bfn.  Coefficient  Atom+Function         Bfn.  Coefficient  Atom+Function  
  ----- ------------  ---------------      ----- ------------  ---------------
    11      2.993201  1 O  py                14     -1.372386  1 O  py         
     8     -1.055706  1 O  py                38     -0.811529  1 O  fxxy       
    43     -0.814223  1 O  fyyy              45     -0.807514  1 O  fyzz       
    17      0.362166  1 O  py                10     -0.127293  1 O  px         
    51      0.063598  2 H  py                13      0.058364  1 O  px         

 Vector   35  Occ=0.000000D+00  E= 2.266154D+00
              MO Center= -4.0D-10,  1.0D-09,  3.3D-01, r^2= 2.1D+00
   Bfn.  Coefficient  Atom+Function         Bfn.  Coefficient  Atom+Function  
  ----- ------------  ---------------      ----- ------------  ---------------
    12      2.842655  1 O  pz                15     -1.942136  1 O  pz         
     4     -1.606349  1 O  s                 48      1.249917  2 H  s          
     5     -0.966858  1 O  s                  9     -0.922992  1 O  pz         
     3      0.822431  1 O  s                 28      0.762158  1 O  dyy        
    39     -0.759493  1 O  fxxz              44     -0.760059  1 O  fyyz       

 Vector   36  Occ=0.000000D+00  E= 2.638099D+00
              MO Center=  1.5D-09,  1.6D-09,  9.9D-01, r^2= 1.8D+00
   Bfn.  Coefficient  Atom+Function         Bfn.  Coefficient  Atom+Function  
  ----- ------------  ---------------      ----- ------------  ---------------
    49      2.683743  2 H  s                 48     -1.958216  2 H  s          
    12      1.827789  1 O  pz                47      1.308543  2 H  s          
    15     -1.254319  1 O  pz                 4      1.172706  1 O  s          
     6     -1.070499  1 O  s                  5      0.990794  1 O  s          
    55     -0.880577  2 H  pz                28     -0.848843  1 O  dyy        

 Vector   37  Occ=0.000000D+00  E= 2.851979D+00
              MO Center=  4.3D-10,  4.6D-10, -2.4D-01, r^2= 2.0D+00
   Bfn.  Coefficient  Atom+Function         Bfn.  Coefficient  Atom+Function  
  ----- ------------  ---------------      ----- ------------  ---------------
     4     10.138463  1 O  s                  3     -5.816426  1 O  s          
     5      5.393379  1 O  s                 25     -5.017709  1 O  dxx        
    28     -5.027503  1 O  dyy               30     -5.032540  1 O  dzz        
     6      3.259365  1 O  s                 36     -2.110682  1 O  dzz        
    31     -2.047823  1 O  dxx               34     -2.043458  1 O  dyy        

 Vector   38  Occ=0.000000D+00  E= 5.132843D+00
              MO Center=  2.5D-11,  6.2D-12, -2.1D-01, r^2= 4.4D-01
   Bfn.  Coefficient  Atom+Function         Bfn.  Coefficient  Atom+Function  
  ----- ------------  ---------------      ----- ------------  ---------------
    42      1.965920  1 O  fxzz              37     -1.007967  1 O  fxxx       
    40      0.743572  1 O  fxyy              38     -0.192656  1 O  fxxy       
    10      0.089259  1 O  px                45      0.083605  1 O  fyzz       
    43      0.031893  1 O  fyyy              33      0.025382  1 O  dxz        

 Vector   39  Occ=0.000000D+00  E= 5.150671D+00
              MO Center= -1.3D-11, -1.6D-11, -2.0D-01, r^2= 4.5D-01
   Bfn.  Coefficient  Atom+Function         Bfn.  Coefficient  Atom+Function  
  ----- ------------  ---------------      ----- ------------  ---------------
    39      2.386312  1 O  fxxz              44     -1.187847  1 O  fyyz       
    46     -0.343308  1 O  fzzz              41      0.304548  1 O  fxyz       
    48      0.112951  2 H  s                  5     -0.064000  1 O  s          
    52     -0.052040  2 H  pz                15     -0.049729  1 O  pz         
    36     -0.048042  1 O  dzz               47     -0.047691  2 H  s          

 Vector   40  Occ=0.000000D+00  E= 5.152412D+00
              MO Center=  1.3D-11,  4.3D-12, -2.0D-01, r^2= 4.4D-01
   Bfn.  Coefficient  Atom+Function         Bfn.  Coefficient  Atom+Function  
  ----- ------------  ---------------      ----- ------------  ---------------
    38      2.475791  1 O  fxxy              45     -0.786741  1 O  fyzz       
    43     -0.466773  1 O  fyyy              40      0.271492  1 O  fxyy       
    37     -0.105744  1 O  fxxx              11     -0.084868  1 O  py         
    42      0.033460  1 O  fxzz       

 Vector   41  Occ=0.000000D+00  E= 5.165088D+00
              MO Center=  4.3D-12,  4.4D-12, -2.0D-01, r^2= 4.4D-01
   Bfn.  Coefficient  Atom+Function         Bfn.  Coefficient  Atom+Function  
  ----- ------------  ---------------      ----- ------------  ---------------
    41      3.858953  1 O  fxyz              39     -0.164407  1 O  fxxz       
    44      0.164407  1 O  fyyz       

 Vector   42  Occ=0.000000D+00  E= 5.170606D+00
              MO Center=  1.9D-11,  1.4D-11, -2.0D-01, r^2= 4.4D-01
   Bfn.  Coefficient  Atom+Function         Bfn.  Coefficient  Atom+Function  
  ----- ------------  ---------------      ----- ------------  ---------------
    40      2.249401  1 O  fxyy              42     -1.410968  1 O  fxzz       
    37     -0.350325  1 O  fxxx              38     -0.237220  1 O  fxxy       
    43      0.096062  1 O  fyyy              10      0.067114  1 O  px         
    45     -0.060005  1 O  fyzz       

 Vector   43  Occ=0.000000D+00  E= 5.206128D+00
              MO Center=  5.7D-12,  2.3D-11, -2.1D-01, r^2= 4.4D-01
   Bfn.  Coefficient  Atom+Function         Bfn.  Coefficient  Atom+Function  
  ----- ------------  ---------------      ----- ------------  ---------------
    45      2.325748  1 O  fyzz              43     -0.816096  1 O  fyyy       
    38      0.265440  1 O  fxxy              40      0.127197  1 O  fxyy       
    42     -0.098907  1 O  fxzz              11     -0.048686  1 O  py         
    35      0.029712  1 O  dyz        

 Vector   44  Occ=0.000000D+00  E= 5.250997D+00
              MO Center= -9.8D-11, -8.1D-11, -1.8D-01, r^2= 4.8D-01
   Bfn.  Coefficient  Atom+Function         Bfn.  Coefficient  Atom+Function  
  ----- ------------  ---------------      ----- ------------  ---------------
    44      2.079171  1 O  fyyz              46     -0.967283  1 O  fzzz       
    39      0.626626  1 O  fxxz              48      0.262100  2 H  s          
    15     -0.211678  1 O  pz                 5     -0.148304  1 O  s          
    36     -0.146723  1 O  dzz                4     -0.142651  1 O  s          
    12      0.135537  1 O  pz                41     -0.123769  1 O  fxyz       

 Vector   45  Occ=0.000000D+00  E= 5.725502D+00
              MO Center= -1.4D-10,  3.5D-12, -2.0D-01, r^2= 7.6D-01
   Bfn.  Coefficient  Atom+Function         Bfn.  Coefficient  Atom+Function  
  ----- ------------  ---------------      ----- ------------  ---------------
    10      2.874209  1 O  px                40     -2.114010  1 O  fxyy       
    42     -2.080460  1 O  fxzz              37     -2.007707  1 O  fxxx       
    13     -0.843294  1 O  px                 7      0.636665  1 O  px         
    16      0.202484  1 O  px                11      0.122233  1 O  py         
    43     -0.089920  1 O  fyyy              45     -0.088477  1 O  fyzz       

 Vector   46  Occ=0.000000D+00  E= 5.793440D+00
              MO Center=  4.1D-11, -1.2D-10, -2.0D-01, r^2= 7.6D-01
   Bfn.  Coefficient  Atom+Function         Bfn.  Coefficient  Atom+Function  
  ----- ------------  ---------------      ----- ------------  ---------------
    11      2.859396  1 O  py                43     -2.065209  1 O  fyyy       
    45     -2.035290  1 O  fyzz              38     -1.968518  1 O  fxxy       
    14     -0.836804  1 O  py                 8      0.641576  1 O  py         
    17      0.201005  1 O  py                10     -0.121603  1 O  px         
    40      0.096097  1 O  fxyy              42      0.086556  1 O  fxzz       

 Vector   47  Occ=0.000000D+00  E= 5.916065D+00
              MO Center=  2.5D-10,  2.7D-10, -1.5D-01, r^2= 8.2D-01
   Bfn.  Coefficient  Atom+Function         Bfn.  Coefficient  Atom+Function  
  ----- ------------  ---------------      ----- ------------  ---------------
    12      3.266045  1 O  pz                44     -2.172746  1 O  fyyz       
    46     -2.146444  1 O  fzzz              39     -2.093138  1 O  fxxz       
     4     -2.039650  1 O  s                 15     -1.415094  1 O  pz         
     3      1.014732  1 O  s                 49      0.961095  2 H  s          
     9      0.572834  1 O  pz                55     -0.521947  2 H  pz         

 Vector   48  Occ=0.000000D+00  E= 6.327856D+00
              MO Center= -1.2D-10, -2.5D-10, -2.0D-01, r^2= 3.9D-01
   Bfn.  Coefficient  Atom+Function         Bfn.  Coefficient  Atom+Function  
  ----- ------------  ---------------      ----- ------------  ---------------
     4      2.367131  1 O  s                  3     -1.237883  1 O  s          
    19     -1.183032  1 O  dxx               28     -1.139713  1 O  dyy        
    30     -0.873098  1 O  dzz               22      0.775668  1 O  dyy        
    24      0.280944  1 O  dzz               31     -0.240081  1 O  dxx        
     6      0.212754  1 O  s                 49     -0.187712  2 H  s          

 Vector   49  Occ=0.000000D+00  E= 6.338669D+00
              MO Center= -9.7D-11, -8.3D-11, -2.0D-01, r^2= 3.8D-01
   Bfn.  Coefficient  Atom+Function         Bfn.  Coefficient  Atom+Function  
  ----- ------------  ---------------      ----- ------------  ---------------
    20      2.040590  1 O  dxy               26     -1.200910  1 O  dxy        
    32      0.316938  1 O  dxy               19     -0.086942  1 O  dxx        
    22      0.086941  1 O  dyy               25      0.051165  1 O  dxx        
    28     -0.051167  1 O  dyy        

 Vector   50  Occ=0.000000D+00  E= 6.346287D+00
              MO Center= -3.2D-10, -4.5D-12, -2.0D-01, r^2= 4.0D-01
   Bfn.  Coefficient  Atom+Function         Bfn.  Coefficient  Atom+Function  
  ----- ------------  ---------------      ----- ------------  ---------------
    21      2.051758  1 O  dxz               27     -1.237996  1 O  dxz        
    33      0.425756  1 O  dxz               53     -0.108455  2 H  px         
    23      0.087256  1 O  dyz               16      0.054723  1 O  px         
    29     -0.052649  1 O  dyz               10     -0.028334  1 O  px         

 Vector   51  Occ=0.000000D+00  E= 6.412493D+00
              MO Center=  1.1D-11, -1.8D-10, -2.0D-01, r^2= 3.9D-01
   Bfn.  Coefficient  Atom+Function         Bfn.  Coefficient  Atom+Function  
  ----- ------------  ---------------      ----- ------------  ---------------
    23      2.051809  1 O  dyz               29     -1.232001  1 O  dyz        
    35      0.422569  1 O  dyz               54     -0.107613  2 H  py         
    21     -0.087259  1 O  dxz               17      0.054244  1 O  py         
    27      0.052394  1 O  dxz               11     -0.029034  1 O  py         

 Vector   52  Occ=0.000000D+00  E= 6.468086D+00
              MO Center=  8.5D-12, -6.8D-12, -1.6D-01, r^2= 4.3D-01
   Bfn.  Coefficient  Atom+Function         Bfn.  Coefficient  Atom+Function  
  ----- ------------  ---------------      ----- ------------  ---------------
     4      4.400205  1 O  s                  3     -2.324346  1 O  s          
    30     -1.904838  1 O  dzz               24      1.058257  1 O  dzz        
    25     -1.003225  1 O  dxx               22     -0.918019  1 O  dyy        
    28     -0.670300  1 O  dyy               49     -0.621942  2 H  s          
     6      0.546719  1 O  s                 12     -0.474184  1 O  pz         

 Vector   53  Occ=0.000000D+00  E= 6.636859D+00
              MO Center=  4.0D-10,  4.1D-10, -2.7D-01, r^2= 8.9D-01
   Bfn.  Coefficient  Atom+Function         Bfn.  Coefficient  Atom+Function  
  ----- ------------  ---------------      ----- ------------  ---------------
     4     40.285266  1 O  s                  3    -21.690229  1 O  s          
    25    -11.487628  1 O  dxx               28    -11.456012  1 O  dyy        
    30    -11.330797  1 O  dzz                5      2.007697  1 O  s          
     6      1.455751  1 O  s                 36     -1.060318  1 O  dzz        
    34     -0.959231  1 O  dyy               31     -0.950380  1 O  dxx        

 Vector   54  Occ=0.000000D+00  E= 1.660602D+01
              MO Center=  2.0D-11,  1.9D-11, -2.1D-01, r^2= 3.4D-01
   Bfn.  Coefficient  Atom+Function         Bfn.  Coefficient  Atom+Function  
  ----- ------------  ---------------      ----- ------------  ---------------
     4     16.903661  1 O  s                 25     -5.177792  1 O  dxx        
    28     -5.176207  1 O  dyy               30     -5.174110  1 O  dzz        
    19     -3.245370  1 O  dxx               22     -3.248379  1 O  dyy        
    24     -3.248384  1 O  dzz                2     -1.853674  1 O  s          
     3     -1.458230  1 O  s                  5      1.250710  1 O  s          

 Vector   55  Occ=0.000000D+00  E= 7.158728D+01
              MO Center= -1.2D-12, -1.2D-12, -2.0D-01, r^2= 7.6D-02
   Bfn.  Coefficient  Atom+Function         Bfn.  Coefficient  Atom+Function  
  ----- ------------  ---------------      ----- ------------  ---------------
     3      9.791932  1 O  s                  2     -4.168624  1 O  s          
     4     -3.601314  1 O  s                 19     -2.706523  1 O  dxx        
    22     -2.706422  1 O  dyy               24     -2.706933  1 O  dzz        
     1      1.708549  1 O  s                  5      1.114017  1 O  s          
     6      0.454011  1 O  s                 36     -0.319123  1 O  dzz        


                     DFT Final Beta Molecular Orbital Analysis
                     -----------------------------------------

 Vector    1  Occ=1.000000D+00  E=-1.903104D+01
              MO Center= -9.4D-13, -9.9D-13, -2.0D-01, r^2= 1.5D-02
   Bfn.  Coefficient  Atom+Function         Bfn.  Coefficient  Atom+Function  
  ----- ------------  ---------------      ----- ------------  ---------------
     2      0.633668  1 O  s                  1      0.436266  1 O  s          
     4     -0.100188  1 O  s                  3      0.090344  1 O  s          

 Vector    2  Occ=1.000000D+00  E=-9.883938D-01
              MO Center= -8.1D-11, -7.4D-11, -1.7D-01, r^2= 4.9D-01
   Bfn.  Coefficient  Atom+Function         Bfn.  Coefficient  Atom+Function  
  ----- ------------  ---------------      ----- ------------  ---------------
     4      0.453676  1 O  s                  3      0.392912  1 O  s          
     2     -0.249675  1 O  s                  5      0.228817  1 O  s          
     1     -0.108535  1 O  s                 48      0.031074  2 H  s          
    30      0.027683  1 O  dzz        

 Vector    3  Occ=1.000000D+00  E=-4.728992D-01
              MO Center=  6.7D-12, -2.7D-12,  2.6D-01, r^2= 1.3D+00
   Bfn.  Coefficient  Atom+Function         Bfn.  Coefficient  Atom+Function  
  ----- ------------  ---------------      ----- ------------  ---------------
     9      0.403466  1 O  pz                12      0.338172  1 O  pz         
    15      0.236925  1 O  pz                48      0.222220  2 H  s          
    47      0.115319  2 H  s                 49      0.113728  2 H  s          
     4     -0.076810  1 O  s                  3     -0.045082  1 O  s          
    18      0.037089  1 O  pz                 6      0.034084  1 O  s          

 Vector    4  Occ=1.000000D+00  E=-4.232497D-01
              MO Center=  2.2D-11,  4.3D-11, -1.9D-01, r^2= 6.7D-01
   Bfn.  Coefficient  Atom+Function         Bfn.  Coefficient  Atom+Function  
  ----- ------------  ---------------      ----- ------------  ---------------
     8      0.493548  1 O  py                11      0.409677  1 O  py         
    14      0.289042  1 O  py                17      0.044047  1 O  py         

 Vector    5  Occ=0.000000D+00  E=-6.981412D-02
              MO Center=  1.5D-10,  3.8D-10,  1.3D+00, r^2= 2.1D+00
   Bfn.  Coefficient  Atom+Function         Bfn.  Coefficient  Atom+Function  
  ----- ------------  ---------------      ----- ------------  ---------------
     6      0.501804  1 O  s                 48      0.346685  2 H  s          
    49      0.338159  2 H  s                  9     -0.288095  1 O  pz         
    12     -0.249741  1 O  pz                55      0.186576  2 H  pz         
    47      0.181464  2 H  s                  5     -0.166511  1 O  s          
    15     -0.159719  1 O  pz                34     -0.099668  1 O  dyy        

 Vector    6  Occ=0.000000D+00  E=-5.076335D-02
              MO Center=  1.8D-10,  5.9D-11, -1.7D-01, r^2= 1.1D+00
   Bfn.  Coefficient  Atom+Function         Bfn.  Coefficient  Atom+Function  
  ----- ------------  ---------------      ----- ------------  ---------------
     7      0.444730  1 O  px                10      0.371921  1 O  px         
    13      0.297183  1 O  px                16      0.175482  1 O  px         
    53      0.031268  2 H  px         

 Vector    7  Occ=0.000000D+00  E= 1.174406D-01
              MO Center= -7.0D-11, -1.2D-09, -1.4D+00, r^2= 6.7D+00
   Bfn.  Coefficient  Atom+Function         Bfn.  Coefficient  Atom+Function  
  ----- ------------  ---------------      ----- ------------  ---------------
     6      3.130538  1 O  s                  5     -1.077288  1 O  s          
    36     -1.023236  1 O  dzz               18     -0.863132  1 O  pz         
    34     -0.846391  1 O  dyy               31     -0.842034  1 O  dxx        
    49      0.561229  2 H  s                 55     -0.461402  2 H  pz         
     3     -0.354943  1 O  s                 25     -0.224600  1 O  dxx        

 Vector    8  Occ=0.000000D+00  E= 1.374158D-01
              MO Center=  8.3D-10, -1.7D-08,  2.5D-02, r^2= 8.1D+00
   Bfn.  Coefficient  Atom+Function         Bfn.  Coefficient  Atom+Function  
  ----- ------------  ---------------      ----- ------------  ---------------
    17      1.125577  1 O  py                14     -0.455041  1 O  py         
     8     -0.143958  1 O  py                54      0.129253  2 H  py         
    11      0.054318  1 O  py                16     -0.047902  1 O  px         
    45     -0.040189  1 O  fyzz              43     -0.038274  1 O  fyyy       
    38     -0.037867  1 O  fxxy              35      0.025171  1 O  dyz        

 Vector    9  Occ=0.000000D+00  E= 1.418006D-01
              MO Center= -5.9D-08, -2.5D-09, -1.6D-02, r^2= 7.8D+00
   Bfn.  Coefficient  Atom+Function         Bfn.  Coefficient  Atom+Function  
  ----- ------------  ---------------      ----- ------------  ---------------
    16      1.130951  1 O  px                13     -0.524535  1 O  px         
     7     -0.204801  1 O  px                53      0.110391  2 H  px         
    17      0.048130  1 O  py                42     -0.044592  1 O  fxzz       
    40     -0.041496  1 O  fxyy              37     -0.038161  1 O  fxxx       

 Vector   10  Occ=0.000000D+00  E= 1.437247D-01
              MO Center=  5.8D-08,  2.1D-08,  8.7D-01, r^2= 8.7D+00
   Bfn.  Coefficient  Atom+Function         Bfn.  Coefficient  Atom+Function  
  ----- ------------  ---------------      ----- ------------  ---------------
     6      4.250124  1 O  s                 49     -2.197499  2 H  s          
    18      1.650866  1 O  pz                55      0.835336  2 H  pz         
     5     -0.819515  1 O  s                 31     -0.744570  1 O  dxx        
    34     -0.746936  1 O  dyy               36     -0.376615  1 O  dzz        
    15      0.269111  1 O  pz                 3     -0.211443  1 O  s          

 Vector   11  Occ=0.000000D+00  E= 2.266690D-01
              MO Center= -1.3D-10,  1.7D-11,  1.3D+00, r^2= 6.1D+00
   Bfn.  Coefficient  Atom+Function         Bfn.  Coefficient  Atom+Function  
  ----- ------------  ---------------      ----- ------------  ---------------
    53      1.295643  2 H  px                16     -0.859226  1 O  px         
    33     -0.162386  1 O  dxz               54      0.055100  2 H  py         
    17     -0.036540  1 O  py                27      0.033776  1 O  dxz        

 Vector   12  Occ=0.000000D+00  E= 2.281422D-01
              MO Center=  3.1D-11, -1.6D-10,  1.2D+00, r^2= 6.2D+00
   Bfn.  Coefficient  Atom+Function         Bfn.  Coefficient  Atom+Function  
  ----- ------------  ---------------      ----- ------------  ---------------
    54      1.292103  2 H  py                17     -0.873668  1 O  py         
    35     -0.158816  1 O  dyz               53     -0.054949  2 H  px         
    16      0.037154  1 O  px                29      0.036688  1 O  dyz        

 Vector   13  Occ=0.000000D+00  E= 2.343924D-01
              MO Center=  2.3D-10,  2.5D-10,  1.9D+00, r^2= 5.7D+00
   Bfn.  Coefficient  Atom+Function         Bfn.  Coefficient  Atom+Function  
  ----- ------------  ---------------      ----- ------------  ---------------
    55      1.623693  2 H  pz                 5      0.795731  1 O  s          
    15      0.779396  1 O  pz                18     -0.503479  1 O  pz         
    49     -0.415962  2 H  s                 36      0.369866  1 O  dzz        
    48     -0.298178  2 H  s                  9      0.156007  1 O  pz         
    34      0.154233  1 O  dyy               31      0.151473  1 O  dxx        

 Vector   14  Occ=0.000000D+00  E= 4.386984D-01
              MO Center=  1.6D-09,  1.8D-09, -5.6D-01, r^2= 6.1D+00
   Bfn.  Coefficient  Atom+Function         Bfn.  Coefficient  Atom+Function  
  ----- ------------  ---------------      ----- ------------  ---------------
     6      4.346068  1 O  s                 36     -2.597905  1 O  dzz        
    31     -2.186552  1 O  dxx               34     -2.163416  1 O  dyy        
    49      1.986322  2 H  s                 55     -1.167390  2 H  pz         
     5     -1.146152  1 O  s                  4      0.926996  1 O  s          
     3     -0.631214  1 O  s                 28     -0.604789  1 O  dyy        

 Vector   15  Occ=0.000000D+00  E= 4.734662D-01
              MO Center=  1.8D-10,  1.2D-10, -2.0D-01, r^2= 3.4D+00
   Bfn.  Coefficient  Atom+Function         Bfn.  Coefficient  Atom+Function  
  ----- ------------  ---------------      ----- ------------  ---------------
    32      1.745244  1 O  dxy               31     -0.074363  1 O  dxx        
    34      0.074361  1 O  dyy               26     -0.054677  1 O  dxy        
    20      0.036415  1 O  dxy        

 Vector   16  Occ=0.000000D+00  E= 4.743717D-01
              MO Center= -5.1D-11,  2.1D-11, -2.0D-01, r^2= 3.4D+00
   Bfn.  Coefficient  Atom+Function         Bfn.  Coefficient  Atom+Function  
  ----- ------------  ---------------      ----- ------------  ---------------
    34     -0.907481  1 O  dyy               31      0.838362  1 O  dxx        
    32      0.148775  1 O  dxy                6      0.101815  1 O  s          
    49     -0.042735  2 H  s                 25     -0.041021  1 O  dxx        
     4      0.032331  1 O  s                  5     -0.025319  1 O  s          

 Vector   17  Occ=0.000000D+00  E= 5.249590D-01
              MO Center=  2.6D-11,  1.8D-10,  8.3D-01, r^2= 5.7D+00
   Bfn.  Coefficient  Atom+Function         Bfn.  Coefficient  Atom+Function  
  ----- ------------  ---------------      ----- ------------  ---------------
     6      5.088861  1 O  s                 49     -4.826928  2 H  s          
    18      1.612066  1 O  pz                55      1.409084  2 H  pz         
    48      1.322225  2 H  s                 31     -1.204322  1 O  dxx        
    34     -1.176504  1 O  dyy               15      0.708809  1 O  pz         
     5     -0.372334  1 O  s                  4      0.279489  1 O  s          

 Vector   18  Occ=0.000000D+00  E= 5.434919D-01
              MO Center=  1.2D-10, -1.1D-10, -5.7D-02, r^2= 4.3D+00
   Bfn.  Coefficient  Atom+Function         Bfn.  Coefficient  Atom+Function  
  ----- ------------  ---------------      ----- ------------  ---------------
    35      2.204497  1 O  dyz               54     -0.908277  2 H  py         
    17      0.455821  1 O  py                14      0.109795  1 O  py         
    33     -0.093381  1 O  dxz               11     -0.049906  1 O  py         
    23      0.039548  1 O  dyz               53      0.038475  2 H  px         
    29     -0.037274  1 O  dyz        

 Vector   19  Occ=0.000000D+00  E= 5.435829D-01
              MO Center= -7.5D-11,  1.1D-10, -6.4D-02, r^2= 4.3D+00
   Bfn.  Coefficient  Atom+Function         Bfn.  Coefficient  Atom+Function  
  ----- ------------  ---------------      ----- ------------  ---------------
    33      2.209325  1 O  dxz               53     -0.906008  2 H  px         
    16      0.456045  1 O  px                13      0.105617  1 O  px         
    35      0.093587  1 O  dyz               10     -0.047464  1 O  px         
    27     -0.046757  1 O  dxz               21      0.039158  1 O  dxz        
    54     -0.038378  2 H  py         

 Vector   20  Occ=0.000000D+00  E= 5.784157D-01
              MO Center= -4.9D-10, -3.2D-10, -2.7D-01, r^2= 4.0D+00
   Bfn.  Coefficient  Atom+Function         Bfn.  Coefficient  Atom+Function  
  ----- ------------  ---------------      ----- ------------  ---------------
    36      1.120127  1 O  dzz               48     -1.077438  2 H  s          
    49      0.969395  2 H  s                 55     -0.638523  2 H  pz         
    15     -0.599895  1 O  pz                31     -0.479058  1 O  dxx        
    34     -0.470932  1 O  dyy                6     -0.384251  1 O  s          
     5     -0.314154  1 O  s                 18      0.288715  1 O  pz         

 Vector   21  Occ=0.000000D+00  E= 6.625499D-01
              MO Center= -5.1D-10, -1.7D-09, -1.7D-01, r^2= 3.5D+00
   Bfn.  Coefficient  Atom+Function         Bfn.  Coefficient  Atom+Function  
  ----- ------------  ---------------      ----- ------------  ---------------
    14      1.806562  1 O  py                11     -1.140361  1 O  py         
    17     -0.674725  1 O  py                 8     -0.273226  1 O  py         
    38      0.186499  1 O  fxxy              43      0.185489  1 O  fyyy       
    45      0.181931  1 O  fyzz              54     -0.099926  2 H  py         
    13     -0.076944  1 O  px                10      0.048571  1 O  px         

 Vector   22  Occ=0.000000D+00  E= 6.718098D-01
              MO Center= -1.1D-09, -4.9D-10, -1.7D-01, r^2= 3.4D+00
   Bfn.  Coefficient  Atom+Function         Bfn.  Coefficient  Atom+Function  
  ----- ------------  ---------------      ----- ------------  ---------------
    13      1.795948  1 O  px                10     -1.182977  1 O  px         
    16     -0.664584  1 O  px                 7     -0.287807  1 O  px         
    37      0.191436  1 O  fxxx              40      0.186708  1 O  fxyy       
    42      0.183174  1 O  fxzz              53     -0.099805  2 H  px         
    14      0.076493  1 O  py                11     -0.050384  1 O  py         

 Vector   23  Occ=0.000000D+00  E= 8.069438D-01
              MO Center= -7.3D-11, -4.1D-11,  7.1D-01, r^2= 3.2D+00
   Bfn.  Coefficient  Atom+Function         Bfn.  Coefficient  Atom+Function  
  ----- ------------  ---------------      ----- ------------  ---------------
    15      2.789762  1 O  pz                49     -2.487557  2 H  s          
    55      1.519927  2 H  pz                 6      1.461427  1 O  s          
    12     -1.253624  1 O  pz                 5      1.139885  1 O  s          
    36      1.020995  1 O  dzz               48     -0.425901  2 H  s          
     3     -0.354033  1 O  s                  9     -0.257117  1 O  pz         

 Vector   24  Occ=0.000000D+00  E= 1.156624D+00
              MO Center=  1.2D-11,  6.0D-11, -4.5D-01, r^2= 3.7D+00
   Bfn.  Coefficient  Atom+Function         Bfn.  Coefficient  Atom+Function  
  ----- ------------  ---------------      ----- ------------  ---------------
     6      4.401376  1 O  s                  5      4.236445  1 O  s          
    36     -3.250386  1 O  dzz               31     -2.745025  1 O  dxx        
    34     -2.752333  1 O  dyy                3     -2.391527  1 O  s          
    25     -1.624211  1 O  dxx               28     -1.620694  1 O  dyy        
    30     -1.590947  1 O  dzz               49      1.141632  2 H  s          

 Vector   25  Occ=0.000000D+00  E= 1.643892D+00
              MO Center=  8.5D-10,  6.4D-11,  1.6D+00, r^2= 9.3D-01
   Bfn.  Coefficient  Atom+Function         Bfn.  Coefficient  Atom+Function  
  ----- ------------  ---------------      ----- ------------  ---------------
    50      1.052246  2 H  px                53     -0.325211  2 H  px         
    33     -0.258167  1 O  dxz               27      0.192673  1 O  dxz        
    16      0.150865  1 O  px                13     -0.114349  1 O  px         
    51      0.044743  2 H  py                 7      0.042670  1 O  px         
    42      0.031899  1 O  fxzz       

 Vector   26  Occ=0.000000D+00  E= 1.645102D+00
              MO Center= -1.9D-13,  8.8D-10,  1.6D+00, r^2= 9.4D-01
   Bfn.  Coefficient  Atom+Function         Bfn.  Coefficient  Atom+Function  
  ----- ------------  ---------------      ----- ------------  ---------------
    51      1.051862  2 H  py                54     -0.324394  2 H  py         
    35     -0.262273  1 O  dyz               29      0.197136  1 O  dyz        
    17      0.149033  1 O  py                14     -0.109717  1 O  py         
     8      0.045093  1 O  py                50     -0.044727  2 H  px         
    45      0.033984  1 O  fyzz       

 Vector   27  Occ=0.000000D+00  E= 1.690534D+00
              MO Center= -2.4D-10, -1.9D-10,  3.7D-01, r^2= 2.2D+00
   Bfn.  Coefficient  Atom+Function         Bfn.  Coefficient  Atom+Function  
  ----- ------------  ---------------      ----- ------------  ---------------
    49      1.938024  2 H  s                  6     -1.732447  1 O  s          
    15     -1.329880  1 O  pz                30      1.317386  1 O  dzz        
    36     -0.931973  1 O  dzz                5     -0.857234  1 O  s          
    34      0.736420  1 O  dyy               52     -0.737236  2 H  pz         
     4     -0.719909  1 O  s                 31      0.695670  1 O  dxx        

 Vector   28  Occ=0.000000D+00  E= 1.826051D+00
              MO Center= -9.7D-11, -3.5D-11, -2.0D-01, r^2= 1.1D+00
   Bfn.  Coefficient  Atom+Function         Bfn.  Coefficient  Atom+Function  
  ----- ------------  ---------------      ----- ------------  ---------------
    26      1.891655  1 O  dxy               32     -0.754183  1 O  dxy        
    25     -0.080607  1 O  dxx               28      0.080610  1 O  dyy        
    31      0.032140  1 O  dxx               34     -0.032136  1 O  dyy        

 Vector   29  Occ=0.000000D+00  E= 1.835457D+00
              MO Center=  9.2D-11, -1.1D-09, -1.9D-01, r^2= 1.2D+00
   Bfn.  Coefficient  Atom+Function         Bfn.  Coefficient  Atom+Function  
  ----- ------------  ---------------      ----- ------------  ---------------
    29      1.917008  1 O  dyz               35     -1.018655  1 O  dyz        
    54      0.294239  2 H  py                17     -0.148222  1 O  py         
    51     -0.083945  2 H  py                27     -0.081520  1 O  dxz        
    33      0.043318  1 O  dxz               14     -0.033018  1 O  py         

 Vector   30  Occ=0.000000D+00  E= 1.836277D+00
              MO Center= -8.8D-11,  4.2D-10, -2.0D-01, r^2= 1.1D+00
   Bfn.  Coefficient  Atom+Function         Bfn.  Coefficient  Atom+Function  
  ----- ------------  ---------------      ----- ------------  ---------------
    28     -0.971250  1 O  dyy               25      0.918602  1 O  dxx        
    31     -0.414042  1 O  dxx               34      0.336674  1 O  dyy        
    26      0.161064  1 O  dxy               49     -0.118435  2 H  s          
     6      0.103739  1 O  s                 15      0.092702  1 O  pz         
     5      0.077550  1 O  s                 32     -0.063980  1 O  dxy        

 Vector   31  Occ=0.000000D+00  E= 1.844020D+00
              MO Center= -5.9D-10, -1.8D-11, -1.9D-01, r^2= 1.2D+00
   Bfn.  Coefficient  Atom+Function         Bfn.  Coefficient  Atom+Function  
  ----- ------------  ---------------      ----- ------------  ---------------
    27      1.918901  1 O  dxz               33     -1.009034  1 O  dxz        
    53      0.291105  2 H  px                16     -0.146245  1 O  px         
    29      0.081600  1 O  dyz               50     -0.081242  2 H  px         
    35     -0.042909  1 O  dyz               13     -0.034193  1 O  px         
    10      0.025308  1 O  px         

 Vector   32  Occ=0.000000D+00  E= 2.030253D+00
              MO Center=  1.8D-10,  1.3D-10,  9.0D-01, r^2= 1.7D+00
   Bfn.  Coefficient  Atom+Function         Bfn.  Coefficient  Atom+Function  
  ----- ------------  ---------------      ----- ------------  ---------------
    49      1.456296  2 H  s                 15     -1.150990  1 O  pz         
     6     -0.943258  1 O  s                 52     -0.901021  2 H  pz         
    12      0.752253  1 O  pz                 5     -0.707874  1 O  s          
    30     -0.497780  1 O  dzz               25      0.468976  1 O  dxx        
    55     -0.447747  2 H  pz                48     -0.427386  2 H  s          

 Vector   33  Occ=0.000000D+00  E= 2.241880D+00
              MO Center=  2.8D-10, -2.6D-09, -2.0D-01, r^2= 1.5D+00
   Bfn.  Coefficient  Atom+Function         Bfn.  Coefficient  Atom+Function  
  ----- ------------  ---------------      ----- ------------  ---------------
    11      2.992892  1 O  py                14     -1.367713  1 O  py         
     8     -1.056847  1 O  py                38     -0.815243  1 O  fxxy       
    43     -0.816850  1 O  fyyy              45     -0.810245  1 O  fyzz       
    17      0.360578  1 O  py                10     -0.127507  1 O  px         
    51      0.063799  2 H  py                13      0.058269  1 O  px         

 Vector   34  Occ=0.000000D+00  E= 2.260397D+00
              MO Center= -5.0D-09, -8.6D-11, -2.0D-01, r^2= 1.5D+00
   Bfn.  Coefficient  Atom+Function         Bfn.  Coefficient  Atom+Function  
  ----- ------------  ---------------      ----- ------------  ---------------
    10      2.991815  1 O  px                13     -1.357490  1 O  px         
     7     -1.060679  1 O  px                37     -0.823221  1 O  fxxx       
    40     -0.825246  1 O  fxyy              42     -0.818708  1 O  fxzz       
    16      0.357566  1 O  px                11      0.127462  1 O  py         
    50      0.061160  2 H  px                14     -0.057834  1 O  py         

 Vector   35  Occ=0.000000D+00  E= 2.277220D+00
              MO Center=  3.2D-09,  1.0D-09,  3.2D-01, r^2= 2.0D+00
   Bfn.  Coefficient  Atom+Function         Bfn.  Coefficient  Atom+Function  
  ----- ------------  ---------------      ----- ------------  ---------------
    12      2.883943  1 O  pz                15     -1.954658  1 O  pz         
     4     -1.546125  1 O  s                 48      1.188235  2 H  s          
     9     -0.940723  1 O  pz                 5     -0.880089  1 O  s          
     3      0.771303  1 O  s                 39     -0.766481  1 O  fxxz       
    44     -0.768392  1 O  fyyz              46     -0.723302  1 O  fzzz       

 Vector   36  Occ=0.000000D+00  E= 2.667282D+00
              MO Center=  1.3D-09,  1.3D-09,  1.0D+00, r^2= 1.8D+00
   Bfn.  Coefficient  Atom+Function         Bfn.  Coefficient  Atom+Function  
  ----- ------------  ---------------      ----- ------------  ---------------
    49      2.653566  2 H  s                 48     -1.985850  2 H  s          
    12      1.732431  1 O  pz                 4      1.413110  1 O  s          
    47      1.331898  2 H  s                 15     -1.186866  1 O  pz         
     5      1.097082  1 O  s                  6     -1.011118  1 O  s          
     3     -0.946575  1 O  s                 25     -0.949116  1 O  dxx        

 Vector   37  Occ=0.000000D+00  E= 2.880500D+00
              MO Center=  2.1D-10,  3.3D-10, -2.2D-01, r^2= 2.0D+00
   Bfn.  Coefficient  Atom+Function         Bfn.  Coefficient  Atom+Function  
  ----- ------------  ---------------      ----- ------------  ---------------
     4     10.300113  1 O  s                  3     -5.879687  1 O  s          
     5      5.347774  1 O  s                 25     -5.048850  1 O  dxx        
    28     -5.050842  1 O  dyy               30     -5.063212  1 O  dzz        
     6      3.249152  1 O  s                 36     -2.084011  1 O  dzz        
    31     -2.027440  1 O  dxx               34     -2.025465  1 O  dyy        

 Vector   38  Occ=0.000000D+00  E= 5.195175D+00
              MO Center=  9.3D-12,  2.0D-11, -2.1D-01, r^2= 4.4D-01
   Bfn.  Coefficient  Atom+Function         Bfn.  Coefficient  Atom+Function  
  ----- ------------  ---------------      ----- ------------  ---------------
    45      2.475349  1 O  fyzz              43     -0.611562  1 O  fyyy       
    38     -0.491148  1 O  fxxy              42     -0.105245  1 O  fxzz       
    11     -0.051178  1 O  py                40      0.036289  1 O  fxyy       
    35      0.031771  1 O  dyz        

 Vector   39  Occ=0.000000D+00  E= 5.201473D+00
              MO Center=  1.8D-11,  1.0D-11, -2.1D-01, r^2= 4.4D-01
   Bfn.  Coefficient  Atom+Function         Bfn.  Coefficient  Atom+Function  
  ----- ------------  ---------------      ----- ------------  ---------------
    42      2.419106  1 O  fxzz              40     -1.083274  1 O  fxyy       
    37     -0.391699  1 O  fxxx              45      0.102852  1 O  fyzz       
    10     -0.054556  1 O  px                43     -0.046166  1 O  fyyy       
    38      0.042479  1 O  fxxy              33      0.030673  1 O  dxz        

 Vector   40  Occ=0.000000D+00  E= 5.208228D+00
              MO Center=  2.1D-12,  4.6D-12, -2.0D-01, r^2= 4.4D-01
   Bfn.  Coefficient  Atom+Function         Bfn.  Coefficient  Atom+Function  
  ----- ------------  ---------------      ----- ------------  ---------------
    41      3.858960  1 O  fxyz              39     -0.164466  1 O  fxxz       
    44      0.164476  1 O  fyyz       

 Vector   41  Occ=0.000000D+00  E= 5.215248D+00
              MO Center= -5.7D-13, -9.5D-13, -2.0D-01, r^2= 4.4D-01
   Bfn.  Coefficient  Atom+Function         Bfn.  Coefficient  Atom+Function  
  ----- ------------  ---------------      ----- ------------  ---------------
    44      2.118824  1 O  fyyz              39     -1.696828  1 O  fxxz       
    41     -0.325252  1 O  fxyz              46     -0.162987  1 O  fzzz       
    48      0.042524  2 H  s                 15     -0.039656  1 O  pz         
    12      0.033410  1 O  pz                36     -0.025797  1 O  dzz        

 Vector   42  Occ=0.000000D+00  E= 5.240418D+00
              MO Center=  7.4D-12,  6.3D-12, -2.0D-01, r^2= 4.4D-01
   Bfn.  Coefficient  Atom+Function         Bfn.  Coefficient  Atom+Function  
  ----- ------------  ---------------      ----- ------------  ---------------
    38      2.380478  1 O  fxxy              43     -0.753698  1 O  fyyy       
    40      0.300645  1 O  fxyy              37     -0.101940  1 O  fxxx       
    45     -0.087713  1 O  fyzz       

 Vector   43  Occ=0.000000D+00  E= 5.246518D+00
              MO Center= -2.6D-11,  4.7D-12, -2.0D-01, r^2= 4.4D-01
   Bfn.  Coefficient  Atom+Function         Bfn.  Coefficient  Atom+Function  
  ----- ------------  ---------------      ----- ------------  ---------------
    40      2.178451  1 O  fxyy              37     -0.880792  1 O  fxxx       
    42      0.558145  1 O  fxzz              38     -0.299696  1 O  fxxy       
    43      0.093304  1 O  fyyy              10     -0.029871  1 O  px         

 Vector   44  Occ=0.000000D+00  E= 5.257922D+00
              MO Center= -4.5D-11, -8.6D-11, -1.8D-01, r^2= 4.9D-01
   Bfn.  Coefficient  Atom+Function         Bfn.  Coefficient  Atom+Function  
  ----- ------------  ---------------      ----- ------------  ---------------
    39      1.702268  1 O  fxxz              44      1.125737  1 O  fyyz       
    46     -1.061665  1 O  fzzz              48      0.279368  2 H  s          
    15     -0.247967  1 O  pz                12      0.192887  1 O  pz         
    36     -0.164345  1 O  dzz                4     -0.155496  1 O  s          
     5     -0.155720  1 O  s                 52     -0.131134  2 H  pz         

 Vector   45  Occ=0.000000D+00  E= 5.810991D+00
              MO Center=  3.3D-11, -2.2D-10, -2.0D-01, r^2= 7.5D-01
   Bfn.  Coefficient  Atom+Function         Bfn.  Coefficient  Atom+Function  
  ----- ------------  ---------------      ----- ------------  ---------------
    11      2.855688  1 O  py                43     -2.049907  1 O  fyyy       
    38     -2.038949  1 O  fxxy              45     -2.007724  1 O  fyzz       
    14     -0.835115  1 O  py                 8      0.643923  1 O  py         
    17      0.200778  1 O  py                10     -0.121730  1 O  px         
    40      0.088313  1 O  fxyy              37      0.086917  1 O  fxxx       

 Vector   46  Occ=0.000000D+00  E= 5.836086D+00
              MO Center= -1.7D-10,  5.1D-12, -2.0D-01, r^2= 7.5D-01
   Bfn.  Coefficient  Atom+Function         Bfn.  Coefficient  Atom+Function  
  ----- ------------  ---------------      ----- ------------  ---------------
    10      2.844918  1 O  px                37     -2.049946  1 O  fxxx       
    40     -2.032128  1 O  fxyy              42     -1.996963  1 O  fxzz       
    13     -0.831000  1 O  px                 7      0.650356  1 O  px         
    16      0.199853  1 O  px                11      0.121271  1 O  py         
    38     -0.088897  1 O  fxxy              43     -0.086625  1 O  fyyy       

 Vector   47  Occ=0.000000D+00  E= 5.920559D+00
              MO Center=  2.7D-10,  2.9D-10, -1.6D-01, r^2= 8.2D-01
   Bfn.  Coefficient  Atom+Function         Bfn.  Coefficient  Atom+Function  
  ----- ------------  ---------------      ----- ------------  ---------------
    12      3.263787  1 O  pz                39     -2.164121  1 O  fxxz       
    44     -2.167954  1 O  fyyz              46     -2.123864  1 O  fzzz       
     4     -1.955604  1 O  s                 15     -1.410349  1 O  pz         
     3      0.966148  1 O  s                 49      0.960799  2 H  s          
     9      0.572944  1 O  pz                55     -0.521098  2 H  pz         

 Vector   48  Occ=0.000000D+00  E= 6.411430D+00
              MO Center=  3.3D-12, -2.4D-10, -2.0D-01, r^2= 3.9D-01
   Bfn.  Coefficient  Atom+Function         Bfn.  Coefficient  Atom+Function  
  ----- ------------  ---------------      ----- ------------  ---------------
    23      2.051796  1 O  dyz               29     -1.232085  1 O  dyz        
    35      0.422581  1 O  dyz               54     -0.107642  2 H  py         
    21     -0.087320  1 O  dxz               17      0.054116  1 O  py         
    27      0.052435  1 O  dxz               11     -0.031017  1 O  py         

 Vector   49  Occ=0.000000D+00  E= 6.433719D+00
              MO Center= -4.8D-11, -1.7D-10, -2.0D-01, r^2= 3.8D-01
   Bfn.  Coefficient  Atom+Function         Bfn.  Coefficient  Atom+Function  
  ----- ------------  ---------------      ----- ------------  ---------------
    20      2.040562  1 O  dxy               26     -1.192123  1 O  dxy        
    32      0.313662  1 O  dxy               19     -0.087373  1 O  dxx        
    22      0.087636  1 O  dyy               25      0.051340  1 O  dxx        
    28     -0.050903  1 O  dyy        

 Vector   50  Occ=0.000000D+00  E= 6.434404D+00
              MO Center= -8.4D-10,  8.8D-11, -2.0D-01, r^2= 3.9D-01
   Bfn.  Coefficient  Atom+Function         Bfn.  Coefficient  Atom+Function  
  ----- ------------  ---------------      ----- ------------  ---------------
    21      2.051832  1 O  dxz               27     -1.229621  1 O  dxz        
    33      0.421625  1 O  dxz               53     -0.107392  2 H  px         
    23      0.087321  1 O  dyz               16      0.054129  1 O  px         
    29     -0.052330  1 O  dyz               10     -0.029038  1 O  px         

 Vector   51  Occ=0.000000D+00  E= 6.443289D+00
              MO Center=  6.5D-10, -2.3D-10, -1.9D-01, r^2= 3.9D-01
   Bfn.  Coefficient  Atom+Function         Bfn.  Coefficient  Atom+Function  
  ----- ------------  ---------------      ----- ------------  ---------------
     4      2.396607  1 O  s                  3     -1.272212  1 O  s          
    22     -1.210934  1 O  dyy               25     -1.017558  1 O  dxx        
    30     -0.988373  1 O  dzz               19      0.609914  1 O  dxx        
    24      0.491774  1 O  dzz               49     -0.295701  2 H  s          
     6      0.270924  1 O  s                 34     -0.238388  1 O  dyy        

 Vector   52  Occ=0.000000D+00  E= 6.495302D+00
              MO Center=  4.3D-11,  9.9D-11, -1.8D-01, r^2= 4.2D-01
   Bfn.  Coefficient  Atom+Function         Bfn.  Coefficient  Atom+Function  
  ----- ------------  ---------------      ----- ------------  ---------------
     4      1.229276  1 O  s                 24     -1.077730  1 O  dzz        
    25     -1.008925  1 O  dxx               19      0.962436  1 O  dxx        
[...]

     1   1 0 0      0.000000     -0.000000      0.000000      0.000000
     1   0 1 0      0.000000     -0.000000      0.000000      0.000000
     1   0 0 1      0.868861      0.310116      0.558745      0.000000

     2   2 0 0     -4.629789     -2.981273     -1.648516      0.000000
     2   1 1 0      0.043226      0.001833      0.041393      0.000000
     2   1 0 1      0.000000     -0.000000      0.000000      0.000000
     2   0 2 0     -5.644358     -3.024292     -2.620066      0.000000
     2   0 1 1     -0.000000     -0.000000      0.000000      0.000000
     2   0 0 2     -1.666549     -7.177982     -5.153386     10.664819

  int_init: cando_txs set to always be  F
                                NWChem TDDFT Module
                                -------------------


            General Information
            -------------------
           No. of orbitals :     110
            Alpha orbitals :      55
             Beta orbitals :      55
        Alpha frozen cores :       0
         Beta frozen cores :       0
     Alpha frozen virtuals :       0
      Beta frozen virtuals :       0
         Spin multiplicity :       2
    Number of AO functions :      55
        Use of symmetry is : off
      Symmetry adaption is : off
         Schwarz screening :  0.10D-07

              XC Information
              --------------
              Hartree-Fock (Exact) Exchange   1.00          
              LC-wPBE(h)Exchange Functional   1.00          
     Perdew 1991 LDA Correlation Functional   1.00 local    
    PerdewBurkeErnz. Correlation Functional   1.00 non-local
           Alpha           :  0.00
           Beta            :  1.00
           Gamma           :  0.37

             TDDFT Information
             -----------------
          Calculation type : Tamm-Dancoff TDDFT
         Wavefunction type : Unrestricted
          No. of electrons :       9
           Alpha electrons :       5
            Beta electrons :       4
              No. of roots :      10
          Max subspacesize :    6000
            Max iterations :     100
               Target root :       1
           Target symmetry : none
      Symmetry restriction : off
                 Algorithm : Optimal
        Davidson threshold :  0.10D-03

            Memory Information
            ------------------
          Available GA space size is       47185913950 doubles
          Available MA space size is         419534916 doubles
          Length of a trial vector is          250     204
          Algorithm : Incore multiple tensor contraction
          Estimated peak GA usage is           9162690 doubles
          Estimated peak MA usage is             51000 doubles

   10 smallest eigenvalue differences (eV) 
--------------------------------------------------------
  No. Spin  Occ  Vir  Irrep   E(Occ)    E(Vir)   E(Diff)
--------------------------------------------------------
    1    1    5    6 a        -0.444    -0.091     9.588
    2    2    4    5 a        -0.423    -0.070     9.617
    3    2    4    6 a        -0.423    -0.051    10.136
    4    1    4    6 a        -0.480    -0.091    10.577
    5    2    3    5 a        -0.473    -0.070    10.969
    6    2    3    6 a        -0.473    -0.051    11.487
    7    1    3    6 a        -0.522    -0.091    11.720
    8    2    4    7 a        -0.423     0.117    14.713
    9    1    5    7 a        -0.444     0.116    15.224
   10    2    4    8 a        -0.423     0.137    15.256
--------------------------------------------------------

  Entering Davidson iterations
  Unrestricted

  Iter   NTrls   NConv    DeltaV     DeltaE      Time   
  ----  ------  ------  ---------  ---------  --------- 
    1     10       0     0.28E+00   0.10+100        8.3
    2     20       0     0.77E-01   0.69E-01        8.7
    3     30       0     0.41E-01   0.69E-02        8.6
    4     40       0     0.22E-01   0.21E-02        8.6
    5     50       6     0.13E-01   0.44E-03        8.6
    6     54       6     0.40E-02   0.91E-04        3.8
    7     58       8     0.13E-02   0.56E-05        3.8
    8     60       9     0.51E-03   0.89E-06        2.2
    9     61       9     0.16E-03   0.91E-07        1.4
   10     62      10     0.85E-04   0.90E-08        1.4
  ----  ------  ------  ---------  ---------  --------- 
  Convergence criterion met

  Ground state a         -75.550386483839 a.u.
  <S2> =   0.7837

  ----------------------------------------------------------------------------
  Root   1         a              0.015484055 a.u.                0.4213 eV 
  <S2> =   0.7873
  ----------------------------------------------------------------------------
     Transition Moments    X -0.00000   Y -0.00000   Z  0.00000
     Transition Moments   XX  0.04257  XY -0.49965  XZ -0.00000
     Transition Moments   YY -0.04258  YZ -0.00000  ZZ  0.00001
     Dipole Oscillator Strength                    0.0000000000
     Electric Quadrupole                           0.0000000000
     Magnetic Dipole                               0.0000001380
     Total Oscillator Strength                     0.0000001380

     Occ.    4 beta  a   ---  Virt.    6 beta  a        0.98924
     Occ.    4 beta  a   ---  Virt.    9 beta  a       -0.13541
  ----------------------------------------------------------------------------
  Root   2         a              0.048805876 a.u.                1.3281 eV 
  <S2> =   2.6872
  ----------------------------------------------------------------------------
     Transition Moments    X -0.00000   Y -0.00000   Z -0.13478
     Transition Moments   XX  0.01807  XY -0.00067  XZ -0.00000
     Transition Moments   YY  0.03392  YZ -0.00000  ZZ -0.47034
     Dipole Oscillator Strength                    0.0005910419
     Electric Quadrupole                           0.0000000001
     Magnetic Dipole                               0.0000000000
     Total Oscillator Strength                     0.0005910420

     Occ.    4 alpha a   ---  Virt.    6 alpha a        0.69882
     Occ.    4 alpha a   ---  Virt.   10 alpha a       -0.06637
     Occ.    4 alpha a   ---  Virt.   13 alpha a       -0.06620
     Occ.    3 beta  a   ---  Virt.    5 beta  a       -0.69350
     Occ.    3 beta  a   ---  Virt.   10 beta  a        0.08843
     Occ.    3 beta  a   ---  Virt.   13 beta  a        0.08396
  ----------------------------------------------------------------------------
  Root   3         a              0.053580726 a.u.                1.4580 eV 
  <S2> =   2.5683
  ----------------------------------------------------------------------------
     Transition Moments    X -0.00105   Y  0.02470   Z  0.00000
     Transition Moments   XX  0.00000  XY  0.00000  XZ  0.00368
     Transition Moments   YY  0.00000  YZ -0.08646  ZZ -0.00000
     Dipole Oscillator Strength                    0.0000218350
     Electric Quadrupole                           0.0000000000
     Magnetic Dipole                               0.0000000433
     Total Oscillator Strength                     0.0000218784

     Occ.    5 alpha a   ---  Virt.    6 alpha a       -0.87516
     Occ.    5 alpha a   ---  Virt.   10 alpha a        0.05233
     Occ.    5 alpha a   ---  Virt.   13 alpha a        0.08708
     Occ.    4 beta  a   ---  Virt.    5 beta  a        0.46472
     Occ.    4 beta  a   ---  Virt.   13 beta  a       -0.05839
  ----------------------------------------------------------------------------
  Root   4         a              0.084948931 a.u.                2.3116 eV 
  <S2> =   0.7575
  ----------------------------------------------------------------------------
     Transition Moments    X -0.03869   Y -0.00164   Z  0.00000
     Transition Moments   XX  0.00000  XY  0.00000  XZ -0.46239
     Transition Moments   YY -0.00000  YZ -0.01967  ZZ  0.00000
     Dipole Oscillator Strength                    0.0000849434
     Electric Quadrupole                           0.0000000007
     Magnetic Dipole                               0.0000008629
     Total Oscillator Strength                     0.0000858070

     Occ.    3 alpha a   ---  Virt.    6 alpha a        0.35508
     Occ.    3 beta  a   ---  Virt.    6 beta  a        0.92463
     Occ.    3 beta  a   ---  Virt.    9 beta  a       -0.11819
  ----------------------------------------------------------------------------
  Root   5         a              0.093009271 a.u.                2.5309 eV 
  <S2> =   0.9355
  ----------------------------------------------------------------------------
     Transition Moments    X -0.00508   Y  0.11951   Z  0.00000
     Transition Moments   XX  0.00000  XY  0.00000  XZ  0.00122
     Transition Moments   YY  0.00000  YZ -0.02843  ZZ -0.00000
     Dipole Oscillator Strength                    0.0008872038
     Electric Quadrupole                           0.0000000000
     Magnetic Dipole                               0.0000002703
     Total Oscillator Strength                     0.0008874742

     Occ.    5 alpha a   ---  Virt.    6 alpha a       -0.46841
     Occ.    4 beta  a   ---  Virt.    5 beta  a       -0.87517
     Occ.    4 beta  a   ---  Virt.   10 beta  a        0.06375
     Occ.    4 beta  a   ---  Virt.   13 beta  a        0.08499
  ----------------------------------------------------------------------------
  Root   6         a              0.147526780 a.u.                4.0144 eV 
  <S2> =   0.7553
  ----------------------------------------------------------------------------
     Transition Moments    X  0.06363   Y  0.00271   Z  0.00000
     Transition Moments   XX  0.00000  XY  0.00000  XZ -0.30300
     Transition Moments   YY  0.00000  YZ -0.01289  ZZ -0.00000
     Dipole Oscillator Strength                    0.0003989131
     Electric Quadrupole                           0.0000000016
     Magnetic Dipole                               0.0000000453
     Total Oscillator Strength                     0.0003989599

     Occ.    3 alpha a   ---  Virt.    6 alpha a       -0.92656
     Occ.    3 alpha a   ---  Virt.   10 alpha a        0.05448
     Occ.    3 alpha a   ---  Virt.   13 alpha a        0.08463
     Occ.    3 beta  a   ---  Virt.    6 beta  a        0.35841
  ----------------------------------------------------------------------------
  Root   7         a              0.294235837 a.u.                8.0066 eV 
  <S2> =   0.7718
  ----------------------------------------------------------------------------
     Transition Moments    X -0.00000   Y -0.00000   Z  1.87616
     Transition Moments   XX -0.10072  XY  0.02467  XZ  0.00000
     Transition Moments   YY -0.67966  YZ  0.00000  ZZ  4.81025
     Dipole Oscillator Strength                    0.6904701643
     Electric Quadrupole                           0.0000012343
     Magnetic Dipole                               0.0000000000
     Total Oscillator Strength                     0.6904713986

     Occ.    3 alpha a   ---  Virt.    8 alpha a        0.12550
     Occ.    3 alpha a   ---  Virt.   21 alpha a        0.05961
     Occ.    4 alpha a   ---  Virt.    6 alpha a       -0.60008
     Occ.    4 alpha a   ---  Virt.    7 alpha a       -0.08042
     Occ.    4 alpha a   ---  Virt.   10 alpha a       -0.11651
     Occ.    5 alpha a   ---  Virt.    9 alpha a        0.24530
     Occ.    5 alpha a   ---  Virt.   22 alpha a        0.07117
     Occ.    3 beta  a   ---  Virt.    5 beta  a       -0.61078
     Occ.    3 beta  a   ---  Virt.    7 beta  a       -0.10938
     Occ.    3 beta  a   ---  Virt.   10 beta  a       -0.08122
     Occ.    4 beta  a   ---  Virt.    8 beta  a        0.33909
     Occ.    4 beta  a   ---  Virt.   12 beta  a        0.05836
     Occ.    4 beta  a   ---  Virt.   21 beta  a        0.08416
  ----------------------------------------------------------------------------
  Root   8         a              0.330616755 a.u.                8.9965 eV 
  <S2> =   2.2928
  ----------------------------------------------------------------------------
     Transition Moments    X  0.01252   Y -0.29434   Z  0.00000
     Transition Moments   XX  0.00000  XY  0.00000  XZ -0.01197
     Transition Moments   YY  0.00000  YZ  0.28154  ZZ  0.00000
     Dipole Oscillator Strength                    0.0191296644
     Electric Quadrupole                           0.0000000153
     Magnetic Dipole                               0.0000000069
     Total Oscillator Strength                     0.0191296865

     Occ.    5 alpha a   ---  Virt.    7 alpha a       -0.24719
     Occ.    5 alpha a   ---  Virt.   10 alpha a       -0.07599
     Occ.    5 alpha a   ---  Virt.   14 alpha a        0.05523
     Occ.    4 beta  a   ---  Virt.    7 beta  a        0.90956
     Occ.    4 beta  a   ---  Virt.   10 beta  a        0.27792
     Occ.    4 beta  a   ---  Virt.   14 beta  a       -0.14560
  ----------------------------------------------------------------------------
  Root   9         a              0.349802496 a.u.                9.5186 eV 
  <S2> =   1.2747
  ----------------------------------------------------------------------------
     Transition Moments    X  0.02094   Y -0.49239   Z -0.00000
     Transition Moments   XX -0.00000  XY  0.00000  XZ -0.01845
     Transition Moments   YY -0.00000  YZ  0.43380  ZZ  0.00000
     Dipole Oscillator Strength                    0.0566411895
     Electric Quadrupole                           0.0000000430
     Magnetic Dipole                               0.0000000258
     Total Oscillator Strength                     0.0566412582

     Occ.    5 alpha a   ---  Virt.    7 alpha a        0.91520
     Occ.    5 alpha a   ---  Virt.   10 alpha a        0.26196
     Occ.    5 alpha a   ---  Virt.   14 alpha a       -0.13757
     Occ.    4 beta  a   ---  Virt.    7 beta  a        0.25846
     Occ.    4 beta  a   ---  Virt.   10 beta  a        0.06182
  ----------------------------------------------------------------------------
  Root  10         a              0.356585966 a.u.                9.7032 eV 
  <S2> =   2.6899
  ----------------------------------------------------------------------------
     Transition Moments    X  0.00000   Y -0.00000   Z  0.25903
     Transition Moments   XX  0.07401  XY -0.01458  XZ  0.00000
     Transition Moments   YY  0.41474  YZ  0.00000  ZZ  0.68659
     Dipole Oscillator Strength                    0.0159498700
     Electric Quadrupole                           0.0000000228
     Magnetic Dipole                               0.0000000000
     Total Oscillator Strength                     0.0159498928

     Occ.    3 alpha a   ---  Virt.    8 alpha a        0.07526
     Occ.    4 alpha a   ---  Virt.    6 alpha a       -0.08554
     Occ.    4 alpha a   ---  Virt.    7 alpha a       -0.05403
     Occ.    5 alpha a   ---  Virt.    9 alpha a        0.58374
     Occ.    5 alpha a   ---  Virt.   22 alpha a        0.09202
     Occ.    3 beta  a   ---  Virt.    5 beta  a       -0.06873
     Occ.    4 beta  a   ---  Virt.    8 beta  a       -0.78306
     Occ.    4 beta  a   ---  Virt.   21 beta  a       -0.07870

              Target root =      1
          Target symmetry = none
      Ground state energy =    -75.550386483839
        Excitation energy =      0.015484054886
     Excited state energy =    -75.534902428953

  stored tddft:energy   -75.534902428952748     

 Task  times  cpu:       53.5s     wall:       61.7s


                                NWChem Input Module
                                -------------------


 Summary of allocated global arrays
-----------------------------------
  No active global arrays


MA_summarize_allocated_blocks: starting scan ...
heap block 'gridpts', handle 103, address 0x131503a8:
	type of elements:		double precision
	number of elements:		104751815
	address of client space:	0x13150400
	index for client space:		11860951
	total number of bytes:		838014616
MA_summarize_allocated_blocks: scan completed: 1 heap block, 0 stack blocks
MA usage statistics:

	allocation statistics:
					      heap	     stack
					      ----	     -----
	current number of blocks	         1	         0
	maximum number of blocks	        18	        53
	current total bytes		 838014616	         0
	maximum total bytes		 838315840	  22513400
	maximum total K-bytes		    838316	     22514
	maximum total M-bytes		       839	        23


                                     CITATION
                                     --------
                Please cite the following reference when publishing
                           results obtained with NWChem:

          E. Apra, E. J. Bylaska, W. A. de Jong, N. Govind, K. Kowalski,
       T. P. Straatsma, M. Valiev, H. J. J. van Dam, Y. Alexeev, J. Anchell,
       V. Anisimov, F. W. Aquino, R. Atta-Fynn, J. Autschbach, N. P. Bauman,
     J. C. Becca, D. E. Bernholdt, K. Bhaskaran-Nair, S. Bogatko, P. Borowski,
         J. Boschen, J. Brabec, A. Bruner, E. Cauet, Y. Chen, G. N. Chuev,
      C. J. Cramer, J. Daily, M. J. O. Deegan, T. H. Dunning Jr., M. Dupuis,
   K. G. Dyall, G. I. Fann, S. A. Fischer, A. Fonari, H. Fruchtl, L. Gagliardi,
      J. Garza, N. Gawande, S. Ghosh, K. Glaesemann, A. W. Gotz, J. Hammond,
       V. Helms, E. D. Hermes, K. Hirao, S. Hirata, M. Jacquelin, L. Jensen,
   B. G. Johnson, H. Jonsson, R. A. Kendall, M. Klemm, R. Kobayashi, V. Konkov,
      S. Krishnamoorthy, M. Krishnan, Z. Lin, R. D. Lins, R. J. Littlefield,
      A. J. Logsdail, K. Lopata, W. Ma, A. V. Marenich, J. Martin del Campo,
   D. Mejia-Rodriguez, J. E. Moore, J. M. Mullin, T. Nakajima, D. R. Nascimento,
    J. A. Nichols, P. J. Nichols, J. Nieplocha, A. Otero-de-la-Roza, B. Palmer,
    A. Panyala, T. Pirojsirikul, B. Peng, R. Peverati, J. Pittner, L. Pollack,
   R. M. Richard, P. Sadayappan, G. C. Schatz, W. A. Shelton, D. W. Silverstein,
   D. M. A. Smith, T. A. Soares, D. Song, M. Swart, H. L. Taylor, G. S. Thomas,
            V. Tipparaju, D. G. Truhlar, K. Tsemekhman, T. Van Voorhis,
      A. Vazquez-Mayagoitia, P. Verma, O. Villa, A. Vishnu, K. D. Vogiatzis,
        D. Wang, J. H. Weare, M. J. Williamson, T. L. Windus, K. Wolinski,
        A. T. Wong, Q. Wu, C. Yang, Q. Yu, M. Zacharias, Z. Zhang, Y. Zhao,
                                and R. J. Harrison
                        "NWChem: Past, present, and future
                         J. Chem. Phys. 152, 184102 (2020)
                               doi:10.1063/5.0004997

                                      AUTHORS
                                      -------
  E. Apra, E. J. Bylaska, N. Govind, K. Kowalski, M. Valiev, D. Mejia-Rodriguez,
       A. Kunitsa, N. P. Bauman, A. Panyala, W. A. de Jong, T. P. Straatsma,
   H. J. J. van Dam, D. Wang, T. L. Windus, J. Hammond, J. Autschbach, A. Woods,
    K. Bhaskaran-Nair, J. Brabec, K. Lopata, S. A. Fischer, S. Krishnamoorthy,
     M. Jacquelin, W. Ma, M. Klemm, O. Villa, Y. Chen, V. Anisimov, F. Aquino,
     S. Hirata, M. T. Hackler, E. Hermes, L. Jensen, J. E. Moore, J. C. Becca,
      V. Konjkov, T. Risthaus, M. Malagoli, A. Marenich, A. Otero-de-la-Roza,
        J. Mullin, P. Nichols, R. Peverati, J. Pittner, Y. Zhao, P.-D. Fan,
        A. Fonari, M. J. Williamson, R. J. Harrison, J. R. Rehr, M. Dupuis,
     D. Silverstein, D. M. A. Smith, J. Nieplocha, V. Tipparaju, M. Krishnan,
     B. E. Van Kuiken, A. Vazquez-Mayagoitia, M. Swart, Q. Wu, T. Van Voorhis,
     A. A. Auer, M. Nooijen, L. D. Crosby, E. Brown, G. Cisneros, G. I. Fann,
   H. Fruchtl, J. Garza, K. Hirao, R. A. Kendall, J. A. Nichols, K. Tsemekhman,
    K. Wolinski, J. Anchell, D. E. Bernholdt, P. Borowski, T. Clark, D. Clerc,
   H. Dachsel, M. J. O. Deegan, K. Dyall, D. Elwood, E. Glendening, M. Gutowski,
   A. C. Hess, J. Jaffe, B. G. Johnson, J. Ju, R. Kobayashi, R. Kutteh, Z. Lin,
   R. Littlefield, X. Long, B. Meng, T. Nakajima, S. Niu, L. Pollack, M. Rosing,
   K. Glaesemann, G. Sandrone, M. Stave, H. Taylor, G. Thomas, J. H. van Lenthe,
                               A. T. Wong, Z. Zhang.

 Total times  cpu:       53.5s     wall:       62.0s
