 argument  1 = /home/aditisingh4812/nw_chem/nwchem-run/nwchem-run/tddft/open/open_atom/geom-MOL/al.nw
                                         
                                         


             Northwest Computational Chemistry Package (NWChem) 7.2.3
             --------------------------------------------------------


                    Environmental Molecular Sciences Laboratory
                       Pacific Northwest National Laboratory
                                Richland, WA 99352

                              Copyright (c) 1994-2022
                       Pacific Northwest National Laboratory
                            Battelle Memorial Institute

             NWChem is an open-source computational chemistry package
                        distributed under the terms of the
                      Educational Community License (ECL) 2.0
             A copy of the license is included with this distribution
                              in the LICENSE.TXT file

                                  ACKNOWLEDGMENT
                                  --------------

            This software and its documentation were developed at the
            EMSL at Pacific Northwest National Laboratory, a multiprogram
            national laboratory, operated for the U.S. Department of Energy
            by Battelle under Contract Number DE-AC05-76RL01830. Support
            for this work was provided by the Department of Energy Office
            of Biological and Environmental Research, Office of Basic
            Energy Sciences, and the Office of Advanced Scientific Computing.


           Job information
           ---------------

    hostname        = p16
    program         = /home/aditisingh4812/nw_chem/nwchem-7.2.3-release.revision-d690e065-srconly.2024-08-27/nwchem-7.2.3/bin/LINUX64/nwchem
    date            = Tue Apr 15 00:03:04 2025

    compiled        = Mon_Apr_07_18:51:54_2025
    source          = /home/aditisingh4812/nw_chem/nwchem-7.2.3-release.revision-d690e065-srconly.2024-08-27/nwchem-7.2.3
    nwchem branch   = 7.2.3
    nwchem revision = d690e065
    ga revision     = 5.8.0
    use scalapack   = F
    input           = /home/aditisingh4812/nw_chem/nwchem-run/nwchem-run/tddft/open/open_atom/geom-MOL/al.nw
    prefix          = al.
    data base       = ./al.db
    status          = startup
    nproc           =        8
    time left       =     -1s



           Memory information
           ------------------

    heap     = 2621439998 doubles =  20000.0 Mbytes
    stack    = 2621439995 doubles =  20000.0 Mbytes
    global   = 6553600000 doubles =  50000.0 Mbytes (distinct from heap & stack)
    total    = ********** doubles =  90000.0 Mbytes
    verify   = yes
    hardfail = no 


           Directory information
           ---------------------

  0 permanent = .
  0 scratch   = .




                                NWChem Input Module
                                -------------------



 Scaling coordinates for geometry "geometry" by  1.889725989
 (inverse scale =  0.529177249)



                             Geometry "geometry" -> ""
                             -------------------------

 Output coordinates in angstroms (scale by  1.889725989 to convert to a.u.)

  No.       Tag          Charge          X              Y              Z
 ---- ---------------- ---------- -------------- -------------- --------------
    1 Al                  13.0000     0.00000000     0.00000000     0.00000000

      Atomic Mass 
      ----------- 

      Al                26.981540


 Effective nuclear repulsion energy (a.u.)       0.0000000000

            Nuclear Dipole moment (a.u.) 
            ----------------------------
        X                 Y               Z
 ---------------- ---------------- ----------------
     0.0000000000     0.0000000000     0.0000000000


            XYZ format geometry
            -------------------
     1
 geometry
 Al                    0.00000000     0.00000000     0.00000000



 Summary of "ao basis" -> "" (cartesian)
 ------------------------------------------------------------------------------
       Tag                 Description            Shells   Functions and Types
 ---------------- ------------------------------  ------  ---------------------
 *                        aug-cc-pVTZ                 on all atoms 


  pbe96 is a nonlocal functional; adding pw91lda local functional. 

                                 NWChem DFT Module
                                 -----------------


                      Basis "ao basis" -> "ao basis" (cartesian)
                      -----
  Al (Aluminium)
  --------------
            Exponent  Coefficients 
       -------------- ---------------------------------------------------------
  1 S  2.05500000E+05  0.000068
  1 S  3.07800000E+04  0.000527
  1 S  7.00600000E+03  0.002762
  1 S  1.98500000E+03  0.011473
  1 S  6.49100000E+02  0.039819
  1 S  2.35000000E+02  0.115040
  1 S  9.16200000E+01  0.260887
  1 S  3.76700000E+01  0.396386
  1 S  1.59100000E+01  0.284597
  1 S  5.85000000E+00  0.044458
  1 S  2.54200000E+00 -0.004898
  1 S  1.05700000E+00  0.002613
  1 S  1.45500000E-01  0.000722

  2 S  2.05500000E+05 -0.000018
  2 S  3.07800000E+04 -0.000137
  2 S  7.00600000E+03 -0.000719
  2 S  1.98500000E+03 -0.003011
  2 S  6.49100000E+02 -0.010601
  2 S  2.35000000E+02 -0.032135
  2 S  9.16200000E+01 -0.080316
  2 S  3.76700000E+01 -0.156794
  2 S  1.59100000E+01 -0.168376
  2 S  5.85000000E+00  0.126879
  2 S  2.54200000E+00  0.561494
  2 S  1.05700000E+00  0.436613
  2 S  1.45500000E-01 -0.011456

  3 S  2.05500000E+05  0.000004
  3 S  3.07800000E+04  0.000032
  3 S  7.00600000E+03  0.000166
  3 S  1.98500000E+03  0.000695
  3 S  6.49100000E+02  0.002455
  3 S  2.35000000E+02  0.007446
  3 S  9.16200000E+01  0.018825
  3 S  3.76700000E+01  0.037277
  3 S  1.59100000E+01  0.041950
  3 S  5.85000000E+00 -0.035438
  3 S  2.54200000E+00 -0.175132
  3 S  1.05700000E+00 -0.276203
  3 S  1.45500000E-01  0.652809

  4 S  2.93100000E-01  1.000000

  5 S  5.65000000E-02  1.000000

  6 S  2.21000000E-02  1.000000

  7 P  4.44400000E+02  0.001628
  7 P  1.05100000E+02  0.013069
  7 P  3.34700000E+01  0.061234
  7 P  1.23300000E+01  0.187870
  7 P  4.86900000E+00  0.360452
  7 P  1.96100000E+00  0.408454
  7 P  1.88800000E-01  0.009765

  8 P  4.44400000E+02 -0.000286
  8 P  1.05100000E+02 -0.002423
  8 P  3.34700000E+01 -0.010866
  8 P  1.23300000E+01 -0.036431
  8 P  4.86900000E+00 -0.064107
  8 P  1.96100000E+00 -0.097224
  8 P  1.88800000E-01  0.503448

  9 P  7.83400000E-01  1.000000

 10 P  5.55700000E-02  1.000000

 11 P  1.46000000E-02  1.000000

 12 D  1.09000000E-01  1.000000

 13 D  3.33000000E-01  1.000000

 14 D  3.56000000E-02  1.000000

 15 F  2.44000000E-01  1.000000

 16 F  8.58000000E-02  1.000000



 Summary of "ao basis" -> "ao basis" (cartesian)
 ------------------------------------------------------------------------------
       Tag                 Description            Shells   Functions and Types
 ---------------- ------------------------------  ------  ---------------------
 Al                       aug-cc-pVTZ               16       59   6s5p3d2f




 Summary of "ao basis" -> "ao basis" (cartesian)
 ------------------------------------------------------------------------------
       Tag                 Description            Shells   Functions and Types
 ---------------- ------------------------------  ------  ---------------------
 Al                       aug-cc-pVTZ               16       59   6s5p3d2f




                         Geometry "geometry" -> "geometry"
                         ---------------------------------

 Output coordinates in angstroms (scale by  1.889725989 to convert to a.u.)

  No.       Tag          Charge          X              Y              Z
 ---- ---------------- ---------- -------------- -------------- --------------
    1 Al                  13.0000     0.00000000     0.00000000     0.00000000

      Atomic Mass 
      ----------- 

      Al                26.981540


 Effective nuclear repulsion energy (a.u.)       0.0000000000

            Nuclear Dipole moment (a.u.) 
            ----------------------------
        X                 Y               Z
 ---------------- ---------------- ----------------
     0.0000000000     0.0000000000     0.0000000000


                      Basis "ao basis" -> "ao basis" (cartesian)
                      -----
  Al (Aluminium)
  --------------
            Exponent  Coefficients 
       -------------- ---------------------------------------------------------
  1 S  2.05500000E+05  0.466915
  1 S  3.07800000E+04  0.872969
  1 S  7.00600000E+03  1.507283
  1 S  1.98500000E+03  2.431384
  1 S  6.49100000E+02  3.649099
  1 S  2.35000000E+02  4.920549
  1 S  9.16200000E+01  5.505654
  1 S  3.76700000E+01  4.295155
  1 S  1.59100000E+01  1.615648
  1 S  5.85000000E+00  0.119175
  1 S  2.54200000E+00 -0.007027
  1 S  1.05700000E+00  0.001941
  1 S  1.45500000E-01  0.000121

  2 S  2.05500000E+05 -0.124072
  2 S  3.07800000E+04 -0.232360
  2 S  7.00600000E+03 -0.401235
  2 S  1.98500000E+03 -0.652709
  2 S  6.49100000E+02 -0.993617
  2 S  2.35000000E+02 -1.405706
  2 S  9.16200000E+01 -1.733463
  2 S  3.76700000E+01 -1.737594
  2 S  1.59100000E+01 -0.977586
  2 S  5.85000000E+00  0.347839
  2 S  2.54200000E+00  0.823851
  2 S  1.05700000E+00  0.331723
  2 S  1.45500000E-01 -0.001967

  3 S  2.05500000E+05  0.046769
  3 S  3.07800000E+04  0.087515
  3 S  7.00600000E+03  0.151332
  3 S  1.98500000E+03  0.245876
  3 S  6.49100000E+02  0.375596
  3 S  2.35000000E+02  0.531666
  3 S  9.16200000E+01  0.663209
  3 S  3.76700000E+01  0.674304
  3 S  1.59100000E+01  0.397554
  3 S  5.85000000E+00 -0.158579
  3 S  2.54200000E+00 -0.419434
  3 S  1.05700000E+00 -0.342532
  3 S  1.45500000E-01  0.182957

  4 S  2.93100000E-01  0.283904

  5 S  5.65000000E-02  0.082594

  6 S  2.21000000E-02  0.040851

  7 P  4.44400000E+02  5.371468
  7 P  1.05100000E+02  7.112040
  7 P  3.34700000E+01  7.972075
  7 P  1.23300000E+01  7.019718
  7 P  4.86900000E+00  4.216048
  7 P  1.96100000E+00  1.532846
  7 P  1.88800000E-01  0.001965

  8 P  4.44400000E+02 -1.647233
  8 P  1.05100000E+02 -2.298927
  8 P  3.34700000E+01 -2.466240
  8 P  1.23300000E+01 -2.373151
  8 P  4.86900000E+00 -1.307260
  8 P  1.96100000E+00 -0.636098
  8 P  1.88800000E-01  0.176649

  9 P  7.83400000E-01  1.050557

 10 P  5.55700000E-02  0.038458

 11 P  1.46000000E-02  0.007234

 12 D  1.09000000E-01  0.034033

 13 D  3.33000000E-01  0.240263

 14 D  3.56000000E-02  0.004802

 15 F  2.44000000E-01  0.061600

 16 F  8.58000000E-02  0.005865



    Basis function labels
    ---------------------
       No.  Atm El Type
       ---  --- -- ----
        1    1 Al s          
        2    1 Al s          
        3    1 Al s          
        4    1 Al s          
        5    1 Al s          
        6    1 Al s          
        7    1 Al px         
        8    1 Al py         
        9    1 Al pz         
       10    1 Al px         
       11    1 Al py         
       12    1 Al pz         
       13    1 Al px         
       14    1 Al py         
       15    1 Al pz         
       16    1 Al px         
       17    1 Al py         
       18    1 Al pz         
       19    1 Al px         
       20    1 Al py         
       21    1 Al pz         
       22    1 Al dxx        
       23    1 Al dxy        
       24    1 Al dxz        
       25    1 Al dyy        
       26    1 Al dyz        
       27    1 Al dzz        
       28    1 Al dxx        
       29    1 Al dxy        
       30    1 Al dxz        
       31    1 Al dyy        
       32    1 Al dyz        
       33    1 Al dzz        
       34    1 Al dxx        
       35    1 Al dxy        
       36    1 Al dxz        
       37    1 Al dyy        
       38    1 Al dyz        
       39    1 Al dzz        
       40    1 Al fxxx       
       41    1 Al fxxy       
       42    1 Al fxxz       
       43    1 Al fxyy       
       44    1 Al fxyz       
       45    1 Al fxzz       
       46    1 Al fyyy       
       47    1 Al fyyz       
       48    1 Al fyzz       
       49    1 Al fzzz       
       50    1 Al fxxx       
       51    1 Al fxxy       
       52    1 Al fxxz       
       53    1 Al fxyy       
       54    1 Al fxyz       
       55    1 Al fxzz       
       56    1 Al fyyy       
       57    1 Al fyyz       
       58    1 Al fyzz       
       59    1 Al fzzz       
  int_init: cando_txs set to always be  F

 Schwarz integral screening summary 
 ---------------------------------- 

        No. of atom pairs =       1
       No. of shell pairs =     136

 Atomic screening 

   value      no.     value      no.     value      no.     value      no.   
  -------- ------    -------- ------    -------- ------    -------- ------   
  0.00D+00      0    1.00D-13      0    1.00D-12      0    1.00D-11      0
  1.00D-10      0    1.00D-09      0    1.00D-08      0    1.00D-07      0
  1.00D-06      0    1.00D-05      0    1.00D-04      0    1.00D-03      0
  1.00D-02      0    1.00D-01      0    1.00D+00      1    1.00D+01      0


 Shell screening 

   value      no.     value      no.     value      no.     value      no.   
  -------- ------    -------- ------    -------- ------    -------- ------   
  0.00D+00      0    1.00D-13      0    1.00D-12      0    1.00D-11      0
  1.00D-10      0    1.00D-09      0    1.00D-08      0    1.00D-07      0
  1.00D-06      0    1.00D-05      0    1.00D-04      2    1.00D-03      4
  1.00D-02     13    1.00D-01     53    1.00D+00     64    1.00D+01      0


  Caching 1-el integrals 
  atom                     1  - neighbor  & S                     1   10.000000000000000       exp AB    1.4600000000000011E-002   1.4600000000000011E-002
 zmins =     0.014600000    0.014600000 lprod =   2 range =        28.73 acc   0.10D-07
 sh     0.000000000
  Center:                     1  Radial Pts. & Wghts. 
    1        0.000003862           1.7285649E-16
    2        0.000030899           4.4251572E-14
    3        0.000104285           1.1341409E-12
    4        0.000247196           1.1329037E-11
    5        0.000482812           6.7530439E-11
    6        0.000834318           2.9039495E-10
    7        0.001324909           9.9682410E-10
    8        0.001977790           2.9015329E-09
    9        0.002816186           7.4463241E-09
   10        0.003863343           1.7302927E-08
   11        0.005142535           3.7102644E-08
   12        0.006677072           7.4453625E-08
   13        0.008490306           1.4131444E-07
   14        0.010605638           2.5580073E-07
   15        0.013046532           4.4451041E-07
   16        0.015836516           7.4546169E-07
   17        0.018999199           1.2117480E-06
   18        0.022558283           1.9160243E-06
   19        0.026537567           2.9559496E-06
   20        0.030960968           4.4607236E-06
   21        0.035852530           6.5988677E-06
   22        0.041236439           9.5874150E-06
   23        0.047137040           1.3702689E-05
   24        0.053578848           1.9292871E-05
   25        0.060586573           2.6792567E-05
   26        0.068185129           3.6739621E-05
   27        0.076399660           4.9794431E-05
   28        0.085255556           6.6762045E-05
   29        0.094778475           8.8617380E-05
   30        0.104994364           1.1653388E-04
   31        0.115929485           1.5191603E-04
   32        0.127610437           1.9643611E-04
   33        0.140064181           2.5207575E-04
   34        0.153318070           3.2117264E-04
   35        0.167399875           4.0647320E-04
   36        0.182337816           5.1119163E-04
   37        0.198160595           6.3907627E-04
   38        0.214897426           7.9448381E-04
   39        0.232578072           9.8246258E-04
   40        0.251232883           1.2088455E-03
   41        0.270892833           1.4803544E-03
   42        0.291589563           1.8047160E-03
   43        0.313355423           2.1907920E-03
   44        0.336223519           2.6487244E-03
   45        0.360227761           3.1900972E-03
   46        0.385402917           3.8281179E-03
   47        0.411784664           4.5778191E-03
   48        0.439409646           5.4562849E-03
   49        0.468315540           6.4829028E-03
   50        0.498541117           7.6796456E-03
   51        0.530126312           9.0713871E-03
   52        0.563112299           1.0686254E-02
   53        0.597541569           1.2556022E-02
   54        0.633458013           1.4716555E-02
   55        0.670907014           1.7208303E-02
   56        0.709935541           2.0076856E-02
   57        0.750592248           2.3373568E-02
   58        0.792927591           2.7156255E-02
   59        0.836993939           3.1489987E-02
   60        0.882845700           3.6447966E-02
   61        0.930539462           4.2112531E-02
   62        0.980134133           4.8576277E-02
   63        1.031691097           5.5943333E-02
   64        1.085274390           6.4330789E-02
   65        1.140950876           7.3870329E-02
   66        1.198790444           8.4710069E-02
   67        1.258866228           9.7016653E-02
   68        1.321254833           1.1097762E-01
   69        1.386036588           1.2680413E-01
   70        1.453295820           1.4473403E-01
   71        1.523121152           1.6503537E-01
   72        1.595605829           1.8801048E-01
   73        1.670848071           2.1400055E-01
   74        1.748951464           2.4339096E-01
   75        1.830025382           2.7661737E-01
   76        1.914185464           3.1417281E-01
   77        2.001554118           3.5661578E-01
   78        2.092261098           4.0457970E-01
   79        2.186444128           4.5878388E-01
   80        2.284249595           5.2004627E-01
   81        2.385833326           5.8929834E-01
   82        2.491361438           6.6760250E-01
   83        2.601011299           7.5617257E-01
   84        2.714972595           8.5639783E-01
   85        2.833448522           9.6987149E-01
   86        2.956657138           1.0984243E+00
   87        3.084832869           1.2441649E+00
   88        3.218228221           1.4095270E+00
   89        3.357115721           1.5973275E+00
   90        3.501790118           1.8108346E+00
   91        3.652570893           2.0538519E+00
   92        3.809805143           2.3308184E+00
   93        3.973870883           2.6469326E+00
   94        4.145180862           3.0083031E+00
   95        4.324186985           3.4221346E+00
   96        4.511385459           3.8969588E+00
   97        4.707322811           4.4429218E+00
   98        4.912602960           5.0721446E+00
   99        5.127895583           5.7991802E+00
  100        5.353946050           6.6415933E+00
  101        5.591587317           7.6207062E+00
  102        5.841754239           8.7625636E+00
  103        6.105500942           1.0099193E+01
  104        6.384022043           1.1670270E+01
  105        6.678678828           1.3525334E+01
  106        6.991031804           1.5726791E+01
  107        7.322881619           1.8354006E+01
  108        7.676321050           2.1508994E+01
  109        8.053801867           2.5324426E+01
  110        8.458221990           2.9975121E+01
  111        8.893040815           3.5694834E+01
  112        9.362434384           4.2801337E+01
  113        9.871508165           5.1734821E+01
  114       10.426595169           6.3118335E+01
  115       11.035684093           7.7856028E+01
  116       11.709052106           9.7298893E+01
  117       12.460232169           1.2353690E+02
  118       13.307552491           1.5994161E+02
  119       14.276709375           2.1224042E+02
  120       15.405336805           2.9081956E+02
  121       16.751780070           4.1619392E+02
  122       18.413784437           6.3391504E+02
  123       20.574588786           1.0640398E+03
  124       23.645571299           2.1254457E+03
  125       28.939407051           6.4191251E+03
     irreducible set of Lebedev Angular points ;
  0.009523809523810  1.000000000000000  0.000000000000000  0.000000000000000
  0.032142857142857  0.577350269189626  0.577350269189626  0.577350269189626
  0.028571428571429  0.459700843380983  0.000000000000000  0.888073833977115
   total no. of   reducible points:  38; test:  1.00000000
  0.012698412698413  1.000000000000000  0.000000000000000  0.000000000000000
  0.022574955908289  0.707106781186547  0.707106781186547  0.000000000000000
  0.021093750000000  0.577350269189626  0.577350269189626  0.577350269189626
  0.020173335537919  0.301511344577764  0.301511344577764  0.904534033733291
   total no. of   reducible points:  50; test:  1.00000000
  0.000513067179734  1.000000000000000  0.000000000000000  0.000000000000000
  0.016604069565742  0.707106781186547  0.707106781186547  0.000000000000000
 -0.029586038961039  0.577350269189626  0.577350269189626  0.577350269189626
  0.026576207082159  0.480384461415261  0.480384461415261  0.733799385705343
  0.016522170993716  0.320772648980776  0.000000000000000  0.947156221362588
   total no. of   reducible points:  74; test:  1.00000000
  0.011544011544012  1.000000000000000  0.000000000000000  0.000000000000000
  0.011943909085856  0.577350269189626  0.577350269189626  0.577350269189626
  0.011110555710603  0.369602846454150  0.369602846454150  0.852518311701268
  0.011876501294537  0.694354006602666  0.694354006602666  0.189063552885395
  0.011812303746904  0.374243039090341  0.000000000000000  0.927330657151172
   total no. of   reducible points:  86; test:  1.00000000
  0.003828270494937  1.000000000000000  0.000000000000000  0.000000000000000
  0.009793737512488  0.577350269189626  0.577350269189626  0.577350269189626
  0.008211737283191  0.185115635344736  0.185115635344736  0.965124035086594
  0.009942814891178  0.690421048382292  0.690421048382292  0.215957291845848
  0.009595471336071  0.395689473055942  0.395689473055942  0.828769981252592
  0.009694996361663  0.478369028812150  0.000000000000000  0.878158910604066
   total no. of   reducible points: 110; test:  1.00000000
  0.000599631368862  1.000000000000000  0.000000000000000  0.000000000000000
  0.007372999718621  0.707106781186547  0.707106781186547  0.000000000000000
  0.007210515360144  0.577350269189626  0.577350269189626  0.577350269189626
  0.007116355493118  0.676441040011426  0.676441040011426  0.291298882209527
  0.006753829486314  0.417496122796545  0.417496122796545  0.807089818359583
  0.007574394159054  0.157467667203908  0.157467667203908  0.974888643677173
  0.006991087353303  0.140355381171318  0.449332832326956  0.882270011260323
   total no. of   reducible points: 146; test:  1.00000000
  0.005544842902037  1.000000000000000  0.000000000000000  0.000000000000000
  0.006071332770671  0.707106781186547  0.707106781186547  0.000000000000000
  0.006383674773515  0.577350269189626  0.577350269189626  0.577350269189626
  0.005183387587748  0.255125262111413  0.255125262111413  0.932642590312691
  0.006317929009814  0.674360146036277  0.674360146036277  0.300793595137701
  0.006201670006589  0.431891069671941  0.431891069671941  0.791795559393492
  0.005477143385137  0.261393136033599  0.000000000000000  0.965232421976448
  0.005968383987681  0.499045316179604  0.144663074432512  0.854415804684659
   total no. of   reducible points: 170; test:  1.00000000
  0.001782340447245  1.000000000000000  0.000000000000000  0.000000000000000
  0.005716905949977  0.707106781186547  0.707106781186547  0.000000000000000
  0.005573383178849  0.577350269189626  0.577350269189626  0.577350269189626
  0.005608704082588  0.671297344269523  0.671297344269523  0.314196994182586
  0.005158237711805  0.289246562757544  0.289246562757544  0.912509096867474
  0.005518771467274  0.444693317871744  0.444693317871744  0.777493219314767
  0.004106777028169  0.129933544765007  0.129933544765007  0.982972302707253
  0.005051846064615  0.345770219761128  0.000000000000000  0.938319218137592
  0.005530248916233  0.159041710538353  0.836036015482459  0.525118572443642
   total no. of   reducible points: 194; test:  1.00000000
 -0.055226399197273  1.000000000000000  0.000000000000000  0.000000000000000
  0.004450274607445  0.577350269189626  0.577350269189626  0.577350269189626
  0.004496841067921  0.449204468739761  0.449204468739761  0.772289253148364
  0.005049153450479  0.252041949021020  0.252041949021020  0.934317778845812
  0.003976408018052  0.698190665844724  0.698190665844724  0.158302205463478
  0.004401400650381  0.658740524346096  0.658740524346096  0.363485684956727
  0.017245443505444  0.040385440500977  0.040385440500977  0.998367683967727
  0.004231083095357  0.582384230971558  0.000000000000000  0.812913653173365
  0.005198069864064  0.354587739051869  0.000000000000000  0.935022745880593
  0.004695720972569  0.227218180899819  0.486466153588665  0.843636521068894
   total no. of   reducible points: 230; test:  1.00000000
 -0.001313769127327  1.000000000000000  0.000000000000000  0.000000000000000
 -0.002522728704859  0.707106781186547  0.707106781186547  0.000000000000000
  0.004186853881701  0.577350269189626  0.577350269189626  0.577350269189626
  0.005315167977811  0.703937339158548  0.703937339158548  0.094575076403713
  0.004047142377086  0.101252624857241  0.101252624857241  0.989694807462905
  0.004112482394407  0.464744872642054  0.464744872642054  0.753673939250816
  0.003595584899759  0.327742065497163  0.327742065497163  0.886098344997499
  0.004256131351428  0.662033866369997  0.662033866369997  0.351315128564633
  0.004229582700647  0.850650808352040  0.000000000000000  0.525731112119134
  0.004080914225781  0.323348454269290  0.115311201100970  0.939227929749916
  0.004071467593831  0.231479015871260  0.524493924092236  0.819343388819120
   total no. of   reducible points: 266; test:  1.00000000
  0.000854591172513  1.000000000000000  0.000000000000000  0.000000000000000
  0.003599119285026  0.577350269189626  0.577350269189626  0.577350269189626
  0.003449788424306  0.351564034557011  0.351564034557011  0.867643624544083
  0.003604822601420  0.656632941021961  0.656632941021961  0.371034178384821
  0.003576729661743  0.472905413258100  0.472905413258100  0.743452042987556
  0.002352101413689  0.096183085226148  0.096183085226148  0.990705621379408
  0.003108953122414  0.221964523629418  0.221964523629418  0.949454317226443
  0.003650045807677  0.701176641608955  0.701176641608955  0.129238672710514
  0.002982344963172  0.264415288706066  0.000000000000000  0.964408914879206
  0.003600820932216  0.571895589187896  0.000000000000000  0.820326419827759
  0.003571540554273  0.251003475177047  0.800072749407395  0.544867737258077
  0.003392312205006  0.123354853258333  0.412772408316853  0.902442529533000
   total no. of   reducible points: 302; test:  1.00000000
  0.003006796749454  1.000000000000000  0.000000000000000  0.000000000000000
  0.003050627745651  0.577350269189626  0.577350269189626  0.577350269189626
  0.001621104600289  0.706896546391232  0.706896546391232  0.024383301669356
  0.003005701484902  0.479468262571203  0.479468262571203  0.734996850587746
  0.002990992529654  0.192753315487802  0.192753315487802  0.962129055136014
  0.002982170644108  0.693035796132712  0.693035796132712  0.198501311223365
  0.002721564237311  0.360830211552009  0.360830211552009  0.860001812127547
  0.003033513795811  0.649848616149617  0.649848616149617  0.394199888605839
  0.003007949555219  0.193294501323034  0.000000000000000  0.981140782843257
  0.002881964603055  0.380049491989930  0.000000000000000  0.924966152698679
  0.002958357626536  0.289955882549957  0.793453785658232  0.535123047718276
  0.003036020026407  0.096841214551040  0.828080150668686  0.552182074349399
  0.002832187403926  0.183343464704166  0.907465826530513  0.378009189874487
   total no. of   reducible points: 350; test:  1.00000000
  0.000526589796822  1.000000000000000  0.000000000000000  0.000000000000000
  0.002548219972003  0.707106781186547  0.707106781186547  0.000000000000000
  0.002512317418927  0.577350269189626  0.577350269189626  0.577350269189626
  0.002530403801186  0.690934630750911  0.690934630750911  0.212646824707552
  0.002014279020919  0.177483605460916  0.177483605460916  0.967987158791473
  0.002501725168403  0.491434263778475  0.491434263778475  0.719016501040843
  0.002513267174598  0.645666470742426  0.645666470742426  0.407712664897770
  0.002302694782227  0.286128901030764  0.286128901030764  0.914472801120872
  0.001462495621595  0.075680843671780  0.075680843671780  0.994255912631278
  0.002445373437313  0.392725976336800  0.392725976336800  0.831584400419232
  0.002417442375639  0.881813287779429  0.000000000000000  0.471598691151316
  0.001910951282180  0.977642811118265  0.000000000000000  0.210272522857307
  0.002416930044325  0.205482369640304  0.868946032287241  0.450233038258263
  0.002512236854563  0.590515704892527  0.799927854385729  0.106801826075805
  0.002496644054553  0.555015236107681  0.771746262691590  0.310428403516654
  0.002236607760438  0.937180985855372  0.334436314534346  0.099217696364292
   total no. of   reducible points: 434; test:  1.00000000
  0.000309512129531  1.000000000000000  0.000000000000000  0.000000000000000
  0.001852379698597  0.577350269189626  0.577350269189626  0.577350269189626
  0.001871790639278  0.704095493822747  0.704095493822747  0.092190407076898
  0.001858812585438  0.680774406645524  0.680774406645524  0.270356088359165
  0.001852028828296  0.637254693925875  0.637254693925875  0.433373868777154
  0.001846715956151  0.504441970780036  0.504441970780036  0.700768575373573
  0.001818471778163  0.421576178401097  0.421576178401097  0.802836877335274
  0.001749564657281  0.331792073647212  0.331792073647212  0.883078727934133
  0.001617210647254  0.238473670142189  0.238473670142189  0.941414158220403
  0.001384737234852  0.145903644915776  0.145903644915776  0.978480583762694
  0.000976433116505  0.060950341155072  0.060950341155072  0.996278129754016
  0.001857161196774  0.611684344200988  0.000000000000000  0.791101929626902
  0.001705153996396  0.396475534819986  0.000000000000000  0.918045287711454
  0.001300321685886  0.172478200990772  0.000000000000000  0.985013335028002
  0.001842866472905  0.561026380862206  0.351828092773352  0.749310611904116
  0.001802658934377  0.474239284255198  0.263471665593795  0.840047488359050
  0.001849830560444  0.598412649788538  0.181664084036021  0.780320742479920
  0.001713904507107  0.379103540769556  0.172079522565688  0.909213475092374
  0.001555213603397  0.277867319058624  0.082130215819325  0.957102074310073
  0.001802239128009  0.503356427107512  0.089992058420749  0.859379855890721
   total no. of   reducible points: 590; test:  1.00000000
  0.000219294208818  1.000000000000000  0.000000000000000  0.000000000000000
  0.001436433617319  0.707106781186547  0.707106781186547  0.000000000000000
  0.001421940344336  0.577350269189626  0.577350269189626  0.577350269189626
  0.000679812351105  0.050872044105024  0.050872044105024  0.997408677652823
  0.000991318423529  0.122819879017883  0.122819879017883  0.984799753572301
  0.001180207833239  0.202689081440879  0.202689081440879  0.958036675983391
  0.001296599602081  0.284774515646429  0.284774515646429  0.915317950483155
  0.001365871427428  0.365671907897803  0.365671907897803  0.855901928697887
  0.001402988604775  0.442826488671347  0.442826488671347  0.779621319527635
  0.001418645563596  0.514061962724974  0.514061962724974  0.686644447264154
  0.001421376741852  0.630640121916680  0.630640121916680  0.452311920313658
  0.001423996475491  0.671688333202261  0.671688333202261  0.312521305001653
  0.001431554042179  0.697979268533688  0.697979268533688  0.160155803498829
  0.000925440149987  0.144686567419531  0.000000000000000  0.989477537495599
  0.001250239995054  0.339026347541122  0.000000000000000  0.940776878793759
  0.001394365843329  0.533580465126351  0.000000000000000  0.845749305193653
  0.001127089094672  0.069440243933494  0.235518789424233  0.969385863498432
  0.001345753760911  0.226900410952946  0.410218247404573  0.883310360522113
  0.001424957283317  0.080255746077753  0.621430241748161  0.779348105702661
  0.001261523341238  0.146799952789657  0.324528434571739  0.934414827052402
  0.001392547106053  0.157150776982473  0.522448218969663  0.838064133458312
  0.001418761677878  0.236570299315725  0.601754663408956  0.762840624604670
  0.001338366684480  0.077148158667657  0.434657551614116  0.897285336132833
  0.001393700862676  0.306293666621073  0.490882658903762  0.815609223203975
  0.001415914757467  0.382247737952479  0.564876814909950  0.731300793659766
   total no. of   reducible points: 770; test:  1.00000000
  0.000143829419053  1.000000000000000  0.000000000000000  0.000000000000000
  0.001125772288287  0.577350269189626  0.577350269189626  0.577350269189626
  0.000494802934195  0.042929635453413  0.042929635453413  0.998155345023847
  0.000735799010913  0.105142685408640  0.105142685408640  0.988883224354686
  0.000888913277130  0.175002486762309  0.175002486762309  0.968890220434707
  0.000988834783892  0.247765337965026  0.247765337965026  0.936602730407163
  0.001053299681709  0.320656712395596  0.320656712395596  0.891267942647606
  0.001092778807015  0.391652074984998  0.391652074984998  0.832596723702352
  0.001114389394063  0.459082587418762  0.459082587418762  0.760582905315251
  0.001123724788052  0.521456388841586  0.521456388841586  0.675400969108414
  0.001125239325244  0.625317024465420  0.625317024465420  0.466858905695743
  0.001126153271816  0.663792674452317  0.663792674452317  0.344613654237438
  0.001130286931124  0.691041039849830  0.691041039849830  0.211954151850184
  0.001134986534364  0.705290700745776  0.705290700745776  0.071624401449956
  0.000682336792711  0.123668676265799  0.000000000000000  0.992323565431490
  0.000945415816045  0.294077711446839  0.000000000000000  0.955781512496548
  0.001074429975386  0.469775384920765  0.000000000000000  0.882785980701182
  0.001129300086569  0.633456324113957  0.000000000000000  0.773778447257375
  0.000843688450090  0.059740486141813  0.202912875277752  0.977372722845310
  0.001075255720449  0.137576040847364  0.460262194248405  0.877058461865803
  0.001108577236864  0.339101652633629  0.503067399966204  0.794942299964208
  0.000956647532378  0.127167519143982  0.281760642244213  0.951020169374390
  0.001080663250717  0.269312074041351  0.433156129172016  0.860143461601762
  0.001126797131196  0.141978645260192  0.625616735858081  0.767102186220558
  0.001022568715358  0.067092846007383  0.379839521685916  0.922616110730809
  0.001108960267713  0.070577381832562  0.551750542142352  0.831017552413474
  0.001122790653436  0.278388847788215  0.602961915615919  0.747620610834086
  0.001032401847117  0.197957893891741  0.358960632958910  0.912118378409121
  0.001107249382284  0.208730706110327  0.534866643813548  0.818748536281022
  0.001121780048520  0.405512213787284  0.567499754607437  0.716591845467024
   total no. of   reducible points: 974; test:  1.00000000
  0.000110518923327  1.000000000000000  0.000000000000000  0.000000000000000
  0.000920523273809  0.707106781186547  0.707106781186547  0.000000000000000
  0.000913315978644  0.577350269189626  0.577350269189626  0.577350269189626
  0.000369042189802  0.037126364496571  0.037126364496571  0.998620681799919
  0.000560399092868  0.091400604122622  0.091400604122622  0.991610739722014
  0.000686529762928  0.153107785246991  0.153107785246991  0.976276606394685
  0.000772033855115  0.218092889166061  0.218092889166061  0.951247067480579
  0.000830154595889  0.283987453220018  0.283987453220018  0.915806886208668
  0.000868669255018  0.349117760096376  0.349117760096376  0.869616915181954
  0.000892707628585  0.412143146144431  0.412143146144431  0.812573722299916
  0.000906082023857  0.471899362714913  0.471899362714913  0.744729469632107
  0.000911977725494  0.527314545284234  0.527314545284234  0.666242253736104
  0.000912872013860  0.620947533244402  0.620947533244402  0.478380938076952
  0.000913071493569  0.656972271185729  0.656972271185729  0.369830866459426
  0.000915287378455  0.684178830907014  0.684178830907014  0.252583955700718
  0.000918743627432  0.701260433012363  0.701260433012363  0.128326186659723
  0.000517697731297  0.107238221547817  0.000000000000000  0.994233354821322
  0.000733114368210  0.258206895949697  0.000000000000000  0.966089643296119
  0.000846323283638  0.417275295530672  0.000000000000000  0.908780131681911
  0.000903112269425  0.570036691179250  0.000000000000000  0.821619237061433
  0.000648577845316  0.982798601826395  0.177177402261533  0.052106394770113
  0.000743503091098  0.962424923032623  0.247571646342629  0.111564095715648
  0.000799852789184  0.940200799412881  0.335461628906649  0.059058888532354
  0.000810173149747  0.932082204014320  0.317361524661198  0.174655167757863
  0.000848338957459  0.904367419939330  0.409026842708536  0.121723505109599
  0.000855629925731  0.891240756007475  0.385429115066922  0.239027847938172
  0.000880320867974  0.867643562846271  0.493222118485128  0.062662506241542
  0.000881104818243  0.858197998604162  0.478532067592243  0.185750519454734
  0.000885028234127  0.839675362404986  0.450742259315706  0.302946697352898
  0.000902134229904  0.816528856402219  0.563212302076210  0.126777480068428
  0.000901009167711  0.801546937078353  0.543430356969390  0.249411216236224
  0.000902269293843  0.777356306907035  0.512351848641987  0.364983226059765
  0.000915801617469  0.766162121390039  0.639427963474910  0.064245492242208
  0.000913157800319  0.755358414353351  0.626980550902439  0.190601822277923
  0.000910781357948  0.734430575755950  0.603116169309631  0.311227594714961
  0.000910576025897  0.704383718402177  0.569370249846844  0.423864478152234
   total no. of   reducible points:1202; test:  1.00000000
  0.000077771607433  1.000000000000000  0.000000000000000  0.000000000000000
  0.000755764641300  0.577350269189626  0.577350269189626  0.577350269189626
  0.000284163380609  0.032292906634139  0.032292906634139  0.998956623864238
  0.000437441912705  0.080367332714622  0.080367332714622  0.993520097262594
  0.000541717474087  0.135428996053165  0.135428996053165  0.981487633165117
  0.000614800089136  0.193896386111443  0.193896386111443  0.961669580940275
  0.000666439448580  0.253734371501127  0.253734371501127  0.933401166400522
  0.000702503935692  0.313525143475257  0.313525143475257  0.896328047546008
  0.000726851178925  0.372155833937534  0.372155833937534  0.850294108254619
  0.000742263753421  0.428680957519570  0.428680957519570  0.795276853253136
  0.000750954503584  0.482251012828299  0.482251012828299  0.731346649169981
  0.000754853505772  0.532067933356626  0.532067933356626  0.658640591360127
  0.000755408896977  0.617299819539427  0.617299819539427  0.487731345715221
  0.000755314717444  0.651067984912748  0.651067984912748  0.390155043595885
  0.000756476765329  0.677731525168736  0.677731525168736  0.285236672931301
  0.000758799180852  0.696310941064874  0.696310941064874  0.174075117999957
  0.000760826183203  0.705893500983175  0.705893500983175  0.058555363028785
  0.000402168044787  0.995554619409186  0.000000000000000  0.094185985013862
  0.000580487179395  0.973411590179421  0.000000000000000  0.229063039585986
  0.000679215195595  0.927569373238863  0.000000000000000  0.373650983980055
  0.000733674121129  0.856802242279510  0.000000000000000  0.515645147000147
  0.000758186630099  0.762349555371937  0.000000000000000  0.647165477620840
  0.000753825785980  0.570752290889222  0.438702803988950  0.694104943230444
  0.000748351724705  0.519646338840308  0.385890841476262  0.762270254565011
  0.000737176366111  0.464633753121535  0.330193737234385  0.821637128756598
  0.000718344889576  0.406390169755769  0.272542357356378  0.872105322408083
  0.000689581552982  0.345632946664309  0.213951023749525  0.913653558859526
  0.000648010580179  0.283139512105033  0.155592230978665  0.946373644151191
  0.000589755889659  0.219768202292533  0.098928789796861  0.970523071240677
  0.000509570884925  0.156469609865035  0.045986429106755  0.986611630545015
  0.000753690642891  0.602735667372129  0.337662514017343  0.722975616397235
  0.000747250596558  0.549603232025510  0.282230130972799  0.786309379645309
  0.000734301713228  0.492170775523457  0.224863234259254  0.840954489612314
  0.000713087158218  0.430942299859848  0.166622472345648  0.886862833757808
  0.000681702203211  0.366410818231367  0.108696490182217  0.924082347686118
  0.000638094114560  0.299018905775844  0.052519897841201  0.952800794667682
  0.000755038137792  0.626872401314500  0.229752365755002  0.744476220506856
  0.000747864664014  0.570732414483461  0.172308060709380  0.802853936449496
  0.000733591872060  0.509636090196037  0.114023846539051  0.852801042441985
  0.000711012052766  0.443872993831246  0.056115220958825  0.894330949550573
  0.000757136397869  0.641997847108239  0.116417442314087  0.757816431224233
  0.000748990832908  0.581721806180261  0.057975895314452  0.811319009870262
   total no. of   reducible points:1454; test:  1.00000000
  qrot: 

              1        2        3      
    1    1.0000   0.0000   0.0000
    2    0.0000   1.0000   0.0000
    3    0.0000   0.0000   1.0000
  me                     0   done genpts
  me                     1   done genpts
  me                     2   done genpts
  me                     3   done genpts
  me                     4   done genpts
  me                     5   done genpts
  me                     6   done genpts
  me                     7   done genpts
  me                     0   done uprt
  me                     1   done uprt
  me                     2   done uprt
  me                     3   done uprt
  me                     4   done uprt
  me                     5   done uprt
  me                     6   done uprt
  me                     7   done uprt
  me                     0  done mem
  me                     1  done mem
  me                     2  done mem
  me                     3  done mem
  me                     4  done mem
  me                     5  done mem
  me                     6  done mem
  me                     7  done mem
  dftinpanae: itol2e                     8  iaoacc                    14  tol_rho    1.0000000000000000E-010

            General Information
            -------------------
          SCF calculation type: DFT
          Wavefunction type:  spin polarized.
          No. of atoms     :     1
          No. of electrons :    13
           Alpha electrons :     7
            Beta electrons :     6
          Charge           :     0
          Spin multiplicity:     2
          Use of symmetry is: off; symmetry adaption is: off
          Maximum number of iterations:  50
          AO basis - number of functions:    59
                     number of shells:    16
          Convergence on energy requested:  1.00D-06
          Convergence on density requested:  1.00D-05
          Convergence on gradient requested:  5.00D-04

              XC Information
              --------------
                     Hartree-Fock (Exact) Exchange  1.000          
                     LC-wPBE(h)Exchange Functional  1.000          
            Perdew 1991 LDA Correlation Functional  1.000 local    
           PerdewBurkeErnz. Correlation Functional  1.000 non-local

           Range-Separation Parameters        
           ---------------------------
           Alpha           :  0.00
           Beta            :  1.00
           Gamma           :  0.30
           Short-Range HF  :     F

             Grid Information
             ----------------
          Grid used for XC integration:  xfine     
          Radial quadrature: Mura-Knowles        
          Angular quadrature: Lebedev. 
          Tag              B.-S. Rad. Rad. Pts. Rad. Cut. Ang. Pts.
          ---              ---------- --------- --------- ---------
          Al                  1.25      125          15.0      1454
          Grid pruning is: on 
          Number of quadrature shells:   125
          Spatial weights used:  Erf1

          Convergence Information
          -----------------------
          Convergence aids based upon iterative change in 
          total energy or number of iterations. 
          Levelshifting, if invoked, occurs when the 
          HOMO/LUMO gap drops below (HL_TOL):  1.00D-02
          DIIS, if invoked, will attempt to extrapolate 
          using up to (NFOCK): 10 stored Fock matrices.

                    Damping( 0%)  Levelshifting(0.5)       DIIS
                  --------------- ------------------- ---------------
          dE  on:    start            ASAP                start   
          dE off:    2 iters         50 iters            50 iters 


      Screening Tolerance Information
      -------------------------------
          Density screening/tol_rho:  1.00D-10
          AO Gaussian exp screening on grid/accAOfunc:  14
          CD Gaussian exp screening on grid/accCDfunc:  20
          XC Gaussian exp screening on grid/accXCfunc:  20
          Schwarz screening/accCoul:  1.00D-08



                         Geometry "geometry" -> "geometry"
                         ---------------------------------

 Output coordinates in angstroms (scale by  1.889725989 to convert to a.u.)

  No.       Tag          Charge          X              Y              Z
 ---- ---------------- ---------- -------------- -------------- --------------
    1 Al                  13.0000     0.00000000     0.00000000     0.00000000

      Atomic Mass 
      ----------- 

      Al                26.981540


 Effective nuclear repulsion energy (a.u.)       0.0000000000

            Nuclear Dipole moment (a.u.) 
            ----------------------------
        X                 Y               Z
 ---------------- ---------------- ----------------
     0.0000000000     0.0000000000     0.0000000000

  
  CAM type calculations without CDFIT are
  only available with the direct option.
  Forcing Direct SCF
  


     <<<<<<    Before call to DFT_SCF.    >>>>>>
     <<<<<< date:  Apr 15  time: 00:03:05 >>>>>>


 Setting tolerance for linear dependence to 1.00D-05






 Setting tolerance for linear dependence to 1.00D-05

 Setting tolerance for linear dependence to 1.00D-05
 Setting tolerance for linear dependence to 1.00D-05
 Setting tolerance for linear dependence to 1.00D-05
 Setting tolerance for linear dependence to 1.00D-05
 Setting tolerance for linear dependence to 1.00D-05
 Setting tolerance for linear dependence to 1.00D-05
  lindep tolerance =    1.0000000000000001E-005
  lindep tolerance =    1.0000000000000001E-005
  lindep tolerance =    1.0000000000000001E-005
  lindep tolerance =    1.0000000000000001E-005
  lindep tolerance =    1.0000000000000001E-005
  lindep tolerance =    1.0000000000000001E-005
  lindep tolerance =    1.0000000000000001E-005
  lindep tolerance =    1.0000000000000001E-005


     <<<<<<    Before 3c-2e initialize.   >>>>>>
     <<<<<< date:  Apr 15  time: 00:03:05 >>>>>>


 Setting fock-build task_bf   :      -1
                    maxquartet:   10000
                    maxeri    :  129600
                    maxscr    :       0
                    intacc    : 0.0D+00
                    denscreen : T
                    dentol    : 1.0D-06


      Superposition of Atomic Density Guess
      -------------------------------------

 Sum of atomic energies:        -241.87958821

      Non-variational initial energy
      ------------------------------

 Total energy =    -241.768942
 1-e energy   =    -336.632475
 2-e energy   =      94.863533
 HOMO         =      -0.010529
 LUMO         =      -0.010529


 Setting fock-build task_bf   :      -1
                    maxquartet:   10000
                    maxeri    :  129600
                    maxscr    :       0
                    intacc    : 0.0D+00
                    denscreen : T
                    dentol    : 1.0D-06


 Wrote molecular orbitals to ./al.movecs

  WARNING: movecs_in_org=atomic not equal to movecs_in=./al.movecs
   Time after variat. SCF:      1.3

 Setting fock-build task_bf   :      -1
                    maxquartet:   10000
                    maxeri    :  129600
                    maxscr    :       0
                    intacc    : 0.0D+00
                    denscreen : T
                    dentol    : 1.0D-06

   Time prior to 1st pass:      1.3


     <<<<<<      Before SCF iter loop.    >>>>>>
     <<<<<< date:  Apr 15  time: 00:03:05 >>>>>>

           DAMPING=T LEVELSHIFTING=F DIISING=T
          itol2e= 8 iAOacc=12 iXCacc=20


     <<<<<<            calling 1-e int    >>>>>>
     <<<<<< date:  Apr 15  time: 00:03:05 >>>>>>

    Kinetic Matrix Time:          0.0s

           Kinetic energy =    241.623243623846

    Potential Matrix Time:          0.0s


     <<<<<<    Before call to GETVXC.     >>>>>>
     <<<<<< date:  Apr 15  time: 00:03:05 >>>>>>



     <<<<<<    Before call to fock_2e.    >>>>>>
     <<<<<< date:  Apr 15  time: 00:03:05 >>>>>>



     <<<<<<     After call to fock_2e.    >>>>>>
     <<<<<< date:  Apr 15  time: 00:03:06 >>>>>>

    Fock_2e Build Time:          0.2s
  *** grid_quadv0:                    calc_type:                    1
  *** grid_quadv0:                    grid_written: F
  *** grid_quadv0:                    grad: T
  *** grid_quadv0:                    kske: F
  *** grid_quadv0:                    kslap: F
  *** grid_quadv0:                    do_scf: T
  *** grid_quadv0:                    fde_option:                    0
  *** grid_quadv0:                    n_per_rec:                 3070
  *** grid_quadv0:                    calc_type:                    1
  *** grid_quadv0:                    grid_written: F
  *** grid_quadv0:                    grad: T
  *** grid_quadv0:                    kske: F
  *** grid_quadv0:                    kslap: F
  *** grid_quadv0:                    do_scf: T
  *** grid_quadv0:                    fde_option:                    0
  *** grid_quadv0:                    n_per_rec:                 3070
  *** grid_quadv0:                    calc_type:                    1
  *** grid_quadv0:                    grid_written: F
  *** grid_quadv0:                    grad: T
  *** grid_quadv0:                    kske: F
  *** grid_quadv0:                    kslap: F
  *** grid_quadv0:                    do_scf: T
  *** grid_quadv0:                    fde_option:                    0
  *** grid_quadv0:                    n_per_rec:                 3070
  *** grid_quadv0:                    calc_type:                    1
  *** grid_quadv0:                    grid_written: F
  *** grid_quadv0:                    grad: T
  *** grid_quadv0:                    kske: F
  *** grid_quadv0:                    kslap: F
  *** grid_quadv0:                    do_scf: T
  *** grid_quadv0:                    fde_option:                    0
  *** grid_quadv0:                    n_per_rec:                 3070
  *** grid_quadv0:                    calc_type:                    1
  *** grid_quadv0:                    grid_written: F
  *** grid_quadv0:                    grad: T
  *** grid_quadv0:                    kske: F
  *** grid_quadv0:                    kslap: F
  *** grid_quadv0:                    do_scf: T
  *** grid_quadv0:                    fde_option:                    0
  *** grid_quadv0:                    n_per_rec:                 3070
  *** grid_quadv0:                    calc_type:                    1
  *** grid_quadv0:                    grid_written: F
  *** grid_quadv0:                    grad: T
  *** grid_quadv0:                    kske: F
  *** grid_quadv0:                    kslap: F
  *** grid_quadv0:                    do_scf: T
  *** grid_quadv0:                    fde_option:                    0
  *** grid_quadv0:                    n_per_rec:                 3070
  *** grid_quadv0:                    calc_type:                    1
  *** grid_quadv0:                    grid_written: F
  *** grid_quadv0:                    grad: T
  *** grid_quadv0:                    kske: F
  *** grid_quadv0:                    calc_type:                    1
  *** grid_quadv0:                    grid_written: F
  *** grid_quadv0:                    kslap: F
  *** grid_quadv0:                    do_scf: T
  *** grid_quadv0:                    fde_option:                    0
  *** grid_quadv0:                    n_per_rec:                 3070
  *** grid_quadv0:                    grad: T
  *** grid_quadv0:                    kske: F
  *** grid_quadv0:                    kslap: F
  *** grid_quadv0:                    do_scf: T
  *** grid_quadv0:                    fde_option:                    0
  *** grid_quadv0:                    n_per_rec:                 3070
   1: nuse=   8 avail= 12500000Mb on .
   2: nuse=   8 avail= 12500000Mb on .
   3: nuse=   8 avail= 12500000Mb on .
   7: nuse=   8 avail= 12500000Mb on .
   0: nuse=   8 avail= 12500000Mb on .
   4: nuse=   8 avail= 12500000Mb on .
   5: nuse=   8 avail= 12500000Mb on .
   6: nuse=   8 avail= 12500000Mb on .
 l_cube input   11.00

  atom type   l_cube   no. cubes   segmts   rad   sub
 ----------- -------- ----------- -------- ----- -----
        1     11.60       124         5      29     8

 Grid_pts file          = ./al.gridpts.0
 Record size in doubles =  12289        No. of grid_pts per rec  =   3070
 Max. records in memory =     10        Max. recs in file   = 126656358

 me   0 NQTOTC NQ/cube   17563     258
 me   1 NQTOTC NQ/cube    9958     829
 me   2 NQTOTC NQ/cube   11043    2208
 me   3 NQTOTC NQ/cube    9971     830
 me   4 NQTOTC NQ/cube    9878    4939
 me   5 NQTOTC NQ/cube   10150    1127
 me   6 NQTOTC NQ/cube    9327    1036
 me   7 NQTOTC NQ/cube    9684    1383

 XC quadr. integrated density :      13.000000 npts:    87205 nctrs:        1

    Fock_xc Build Time:          0.1s


     <<<<<<    Before call to GETVCOUL.   >>>>>>
     <<<<<< date:  Apr 15  time: 00:03:06 >>>>>>



     <<<<<<    End of parallel region.    >>>>>>
     <<<<<< date:  Apr 15  time: 00:03:06 >>>>>>

    Total Fock Matrix Build Time:          0.3s
 Etnew, Ecore, Ecoul, Exc(1), Exc(2), Totsic:   -242.21378289372225       -335.66637904599537        111.81685514269930       -18.364258990426176        0.0000000000000000        0.0000000000000000     
  delta =   -242.21378289372225     
  delta =   -242.21378289372225     
  delta =   -242.21378289372225     
  delta =   -242.21378289372225     
  delta =   -242.21378289372225     
  delta =   -242.21378289372225     
  delta =   -242.21378289372225     


         Total DFT energy =     -242.213782893722
      One electron energy =     -335.666379045995
           Coulomb energy =      111.816855142699
    Exchange-Corr. energy =      -18.364258990426
 Nuclear repulsion energy =        0.000000000000

 Numeric. integr. density =       12.999999997030

     Total iterative time =      2.2s




     <<<<<<        calling diis driver    >>>>>>
     <<<<<< date:  Apr 15  time: 00:03:06 >>>>>>

  delta =   -242.21378289372225     
 nhist                     1  pulay matrix 
   0.0000E+00
  -1.0000E+00   6.0486E-02


     <<<<<<         called diis driver    >>>>>>
     <<<<<< date:  Apr 15  time: 00:03:06 >>>>>>


 global array: fock transf[1:59,1:59],  handle: -940 

            1           2           3           4           5           6  
       ----------- ----------- ----------- ----------- ----------- -----------
   1       1.32946    -0.00000    -0.00000    -0.00000    -0.72349    -0.46333
   2      -0.00000     0.38331     0.00145    -0.00108    -0.00000     0.00000
   3      -0.00000     0.00145     0.38269    -0.00088    -0.00000     0.00000
   4      -0.00000    -0.00108    -0.00088     0.38216    -0.00000     0.00000
   5      -0.72349    -0.00000    -0.00000    -0.00000     1.36024     1.05500
   6      -0.46333     0.00000     0.00000     0.00000     1.05500     1.08659
   7       0.00000     0.07332     0.05644     0.00748     0.00000    -0.00000
   8      -0.00000    -0.03702     0.03801     0.07616    -0.00000     0.00000
   9       0.00000     0.04324    -0.06313     0.05253     0.00000    -0.00000
  10       0.00000     0.00009    -0.00002     0.00003     0.00000    -0.00000
  11      -0.31434    -0.00000    -0.00000    -0.00000     0.06843     0.31698
  12       0.00000    -0.00001     0.00011     0.00001     0.00000    -0.00000
  13      -0.00000     0.00006    -0.00002    -0.00005    -0.00000     0.00000
  14      -0.00000    -0.00001     0.00010     0.00005    -0.00000     0.00000
  15      -0.00000     0.00000    -0.00000    -0.00000    -0.00016    -0.00011
  16      -0.00000     0.00000     0.00000     0.00000    -0.00043    -0.00028
  17      -0.00000     0.00000     0.00000     0.00000    -0.00029    -0.00019
  18       0.00000     0.01630     0.00468     0.01036     0.00000    -0.00000
  19      -0.00000    -0.00666    -0.01075     0.01527    -0.00000     0.00000
  20      -0.00000     0.00912    -0.01594    -0.00728    -0.00000     0.00000
  21       0.00000    -0.00002     0.00008    -0.00009     0.00000    -0.00000
  22      -0.00000    -0.00000    -0.00000    -0.00000    -0.00046    -0.00031
  23       0.00000     0.00000     0.00000     0.00000     0.00013     0.00009
  24      -0.00000     0.00008    -0.00008    -0.00010    -0.00000     0.00000
  25      -0.00000     0.00002     0.00011    -0.00000    -0.00000     0.00000
  26      -0.00000    -0.00013     0.00000     0.00008    -0.00000     0.00000
  27       0.00014    -0.00000     0.00000    -0.00000     0.00036     0.00006
  28      -0.00009     0.00000     0.00000     0.00000    -0.00025    -0.00004
  29       0.00015    -0.00000    -0.00000    -0.00000     0.00039     0.00007
  30      -0.00000     0.01732     0.01124     0.00113    -0.00000     0.00000
  31      -0.00000    -0.00976     0.01410     0.01149    -0.00000     0.00000
  32      -0.00000     0.00571    -0.00995     0.01704    -0.00000     0.00000
  33       0.00000    -0.04630     0.07234    -0.00737     0.00000    -0.00000
  34      -0.00000    -0.01449    -0.00072     0.08509    -0.00000     0.00000
  35      -0.00000    -0.07141    -0.04708    -0.01207    -0.00000     0.00000
  36      -0.02917    -0.00000    -0.00000    -0.00000     0.05158     0.17466
  37       0.00000     0.02731    -0.01593    -0.00634     0.00000    -0.00000
  38       0.00000     0.01716     0.02447     0.01226     0.00000    -0.00000
  39       0.00000     0.00117     0.01365    -0.02913     0.00000    -0.00000
  40       0.00020     0.00000     0.00000     0.00000     0.00051     0.00009
  41       0.00003     0.00000     0.00000    -0.00000     0.00009     0.00002
  42      -0.00001    -0.00000     0.00000     0.00000    -0.00000    -0.00014
  43      -0.00000    -0.00000    -0.00000     0.00000    -0.00000    -0.00004
  44      -0.00004    -0.00000    -0.00000    -0.00000    -0.00001    -0.00041
  45       0.00387     0.00000     0.00000     0.00000     0.06371     0.09861
  46       0.00000    -0.02191    -0.01513    -0.00287     0.00000    -0.00000
  47      -0.00000    -0.00706     0.01454    -0.02123    -0.00000     0.00000
  48       0.00000    -0.01360     0.01652     0.01589     0.00000    -0.00000
  49      -0.00000    -0.00000    -0.00000     0.00000    -0.00000    -0.00001
  50       0.00003    -0.00000    -0.00000    -0.00000     0.00001     0.00039
  51      -0.01679     0.00000     0.00000     0.00000    -0.04360    -0.08328
  52      -0.00000     0.00564    -0.00820     0.00250    -0.00000     0.00000
  53       0.00000    -0.00040    -0.00322    -0.00974     0.00000    -0.00000
  54      -0.00000     0.00875     0.00545    -0.00228    -0.00000     0.00000
  55      -0.03758     0.00000     0.00000     0.00000     0.06866     0.07889
  56       0.00000    -0.00279     0.00518    -0.00634     0.00000    -0.00000
  57       0.00000    -0.00960    -0.00556     0.00283     0.00000    -0.00000
  58      -0.00000    -0.00185     0.00573     0.00568    -0.00000     0.00000
  59       0.02467     0.00000     0.00000     0.00000    -0.02520    -0.04014

            7           8           9          10          11          12  
       ----------- ----------- ----------- ----------- ----------- -----------
   1       0.00000    -0.00000     0.00000     0.00000    -0.31434     0.00000
   2       0.07332    -0.03702     0.04324     0.00009    -0.00000    -0.00001
   3       0.05644     0.03801    -0.06313    -0.00002    -0.00000     0.00011
   4       0.00748     0.07616     0.05253     0.00003    -0.00000     0.00001
   5       0.00000    -0.00000     0.00000     0.00000     0.06843     0.00000
   6      -0.00000     0.00000    -0.00000    -0.00000     0.31698    -0.00000
   7       2.73089    -0.00079    -0.00060     0.00019     0.00000     0.00013
   8      -0.00079     2.72944     0.00031    -0.00009    -0.00000    -0.00014
   9      -0.00060     0.00031     2.72927    -0.00013     0.00000    -0.00010
  10       0.00019    -0.00009    -0.00013     0.75013     0.00000     0.00013
  11       0.00000    -0.00000     0.00000     0.00000     1.81927     0.00000
  12       0.00013    -0.00014    -0.00010     0.00013     0.00000     0.75030
  13       0.00010    -0.00013    -0.00016     0.00049    -0.00000     0.00024
  14       0.00012    -0.00000    -0.00004     0.00003    -0.00000     0.00115
  15       0.00000     0.00000    -0.00000     0.00000    -0.00012     0.00000
  16      -0.00000    -0.00000    -0.00000    -0.00000    -0.00033    -0.00000
  17      -0.00000    -0.00000    -0.00000    -0.00000    -0.00022    -0.00000
  18      -0.29831    -0.06875    -0.18382    -0.00023     0.00000    -0.00041
  19       0.18876    -0.19457    -0.23264    -0.00125    -0.00000    -0.00061
  20       0.05527     0.29138    -0.19882    -0.00042    -0.00000     0.00067
  21      -0.00040     0.00007    -0.00050    -0.27716     0.00000     0.00005
  22       0.00000    -0.00000     0.00000     0.00000    -0.00035     0.00000
  23      -0.00000    -0.00000    -0.00000    -0.00000     0.00010    -0.00000
  24      -0.00031    -0.00058     0.00028     0.00005    -0.00000     0.00086
  25      -0.00001     0.00048    -0.00020    -0.00021    -0.00000     0.05373
  26       0.00028     0.00033    -0.00041    -0.00001    -0.00000     0.27188
  27      -0.00000    -0.00000     0.00000    -0.00000    -0.00004    -0.00000
  28      -0.00000    -0.00000    -0.00000    -0.00000     0.00002    -0.00000
  29       0.00000     0.00000     0.00000     0.00000    -0.00004     0.00000
  30      -0.52295     0.03847    -0.02328     0.00057    -0.00000     0.00028
  31      -0.04375    -0.48558     0.19414     0.00015    -0.00000    -0.00077
  32       0.00849    -0.19521    -0.48706    -0.00101    -0.00000    -0.00031
  33      -0.04946    -0.30589     0.54482    -0.00020     0.00000     0.00008
  34       0.03574    -0.54736    -0.30425     0.00002    -0.00000    -0.00011
  35       0.62515     0.00652     0.06016    -0.00016    -0.00000    -0.00075
  36       0.00000    -0.00000     0.00000     0.00000     0.00745     0.00000
  37       0.15498    -0.30744     0.27076    -0.00009     0.00000     0.00024
  38       0.40002     0.17886    -0.02381     0.00017     0.00000    -0.00011
  39       0.09568    -0.25571    -0.34329     0.00040     0.00000     0.00018
  40      -0.00000     0.00000    -0.00000    -0.00000    -0.00005    -0.00000
  41      -0.00000     0.00000    -0.00000     0.00000    -0.00001     0.00000
  42      -0.00000    -0.00000     0.00000    -0.00000    -0.00009    -0.00000
  43       0.00000    -0.00000    -0.00000     0.00000    -0.00003    -0.00000
  44       0.00000     0.00000     0.00000     0.00000    -0.00027     0.00000
  45      -0.00000     0.00000    -0.00000    -0.00000    -0.93237    -0.00000
  46      -0.00645     0.00016    -0.00024    -0.00042     0.00000    -0.00076
  47       0.00042    -0.00216    -0.00626     0.00049    -0.00000     0.00029
  48       0.00012     0.00622    -0.00209    -0.00009    -0.00000    -0.00048
  49       0.00000    -0.00000    -0.00000    -0.00000    -0.00001    -0.00000
  50       0.00000    -0.00000     0.00000     0.00000     0.00026     0.00000
  51      -0.00000     0.00000    -0.00000    -0.00000     0.48293    -0.00000
  52      -0.01103    -0.13224     0.35613    -0.00015    -0.00000     0.00007
  53      -0.11443    -0.33852    -0.12940     0.00009     0.00000     0.00013
  54       0.36382    -0.11206    -0.03113     0.00017    -0.00000     0.00028
  55      -0.00000     0.00000    -0.00000    -0.00000    -0.07809    -0.00000
  56       0.00255     0.01327     0.06753    -0.00100     0.00000    -0.00001
  57       0.06851    -0.02339    -0.00111     0.00049     0.00000     0.00120
  58      -0.02098    -0.06366     0.01325    -0.00001    -0.00000     0.00079
  59      -0.00000     0.00000    -0.00000    -0.00000    -0.01576    -0.00000

           13          14          15          16          17          18  
       ----------- ----------- ----------- ----------- ----------- -----------
   1      -0.00000    -0.00000    -0.00000    -0.00000    -0.00000     0.00000
   2       0.00006    -0.00001     0.00000     0.00000     0.00000     0.01630
   3      -0.00002     0.00010    -0.00000     0.00000     0.00000     0.00468
   4      -0.00005     0.00005    -0.00000     0.00000     0.00000     0.01036
   5      -0.00000    -0.00000    -0.00016    -0.00043    -0.00029     0.00000
   6       0.00000     0.00000    -0.00011    -0.00028    -0.00019    -0.00000
   7       0.00010     0.00012     0.00000    -0.00000    -0.00000    -0.29831
   8      -0.00013    -0.00000     0.00000    -0.00000    -0.00000    -0.06875
   9      -0.00016    -0.00004    -0.00000    -0.00000    -0.00000    -0.18382
  10       0.00049     0.00003     0.00000    -0.00000    -0.00000    -0.00023
  11      -0.00000    -0.00000    -0.00012    -0.00033    -0.00022     0.00000
  12       0.00024     0.00115     0.00000    -0.00000    -0.00000    -0.00041
  13       0.75009    -0.00018    -0.00000    -0.00000    -0.00000    -0.00078
  14      -0.00018     0.75011    -0.00000     0.00000     0.00000     0.00016
  15      -0.00000    -0.00000     0.59090     0.00033     0.00024     0.00000
  16      -0.00000     0.00000     0.00033     0.59166     0.00062    -0.00000
  17      -0.00000     0.00000     0.00024     0.00062     0.59117    -0.00000
  18      -0.00078     0.00016     0.00000    -0.00000    -0.00000     0.80655
  19      -0.00074    -0.00032    -0.00000    -0.00000    -0.00000    -0.00017
  20      -0.00028     0.00026    -0.00000     0.00000     0.00000    -0.00013
  21      -0.00020     0.00005     0.00000    -0.00000    -0.00000     0.00019
  22      -0.00000    -0.00000     0.00036     0.00096     0.00064     0.00000
  23      -0.00000     0.00000    -0.00009    -0.00029    -0.00019    -0.00000
  24       0.00243    -0.27719     0.00000     0.00000     0.00000    -0.00024
  25      -0.27183    -0.00129    -0.00000    -0.00000    -0.00000     0.00044
  26       0.05378     0.00325    -0.00000     0.00000     0.00000    -0.00025
  27       0.00000     0.00000     0.25531     0.08394     0.04606     0.00000
  28      -0.00000     0.00000     0.04144     0.02135    -0.26871    -0.00000
  29       0.00000    -0.00000    -0.08606     0.25869     0.00733     0.00000
  30       0.00020     0.00034    -0.00000     0.00000     0.00000     0.30279
  31       0.00016    -0.00024    -0.00000     0.00000     0.00000     0.02084
  32      -0.00075    -0.00003     0.00000     0.00000     0.00000     0.19294
  33      -0.00013    -0.00011     0.00000    -0.00000    -0.00000    -0.00043
  34      -0.00002    -0.00029     0.00000    -0.00000    -0.00000     0.00048
  35      -0.00086    -0.00008    -0.00000     0.00000     0.00000    -0.00018
  36      -0.00000    -0.00000     0.00018     0.00048     0.00033     0.00000
  37      -0.00015     0.00011    -0.00000     0.00000     0.00000    -0.03279
  38       0.00001     0.00007     0.00000    -0.00000    -0.00000    -0.05570
  39       0.00026     0.00004     0.00000     0.00000     0.00000     0.02296
  40       0.00000     0.00000     0.00010     0.00017     0.00016    -0.00000
  41       0.00000    -0.00000    -0.00005     0.00009     0.00006    -0.00000
  42       0.00000     0.00000    -0.04762     0.00158    -0.00395    -0.00000
  43      -0.00000    -0.00000     0.00248     0.02052    -0.04051    -0.00000
  44       0.00000    -0.00000     0.00034    -0.04191    -0.02232     0.00000
  45       0.00000    -0.00000    -0.00002    -0.00006    -0.00004    -0.00000
  46      -0.00083    -0.00024     0.00000    -0.00000    -0.00000     0.01048
  47       0.00038     0.00016    -0.00000    -0.00000    -0.00000     0.00495
  48      -0.00005    -0.00045    -0.00000     0.00000     0.00000    -0.00024
  49      -0.00000     0.00000     0.00099    -0.00085    -0.00039     0.00000
  50      -0.00000    -0.00000    -0.00020     0.00015    -0.00061     0.00000
  51       0.00000     0.00000    -0.00010    -0.00027    -0.00018    -0.00000
  52      -0.00011     0.00009     0.00000     0.00000    -0.00000    -0.07013
  53      -0.00000     0.00014     0.00000    -0.00000    -0.00000     0.10743
  54       0.00027     0.00012    -0.00000    -0.00000     0.00000    -0.12575
  55       0.00000     0.00000    -0.00000    -0.00000    -0.00000    -0.00000
  56      -0.00052    -0.00000    -0.00000    -0.00000    -0.00000    -0.02662
  57       0.00106     0.00050     0.00000     0.00000    -0.00000    -0.03488
  58      -0.00044     0.00102    -0.00000     0.00000     0.00000     0.01591
  59       0.00000     0.00000    -0.00071    -0.00190    -0.00129    -0.00000

           19          20          21          22          23          24  
       ----------- ----------- ----------- ----------- ----------- -----------
   1      -0.00000    -0.00000     0.00000    -0.00000     0.00000    -0.00000
   2      -0.00666     0.00912    -0.00002    -0.00000     0.00000     0.00008
   3      -0.01075    -0.01594     0.00008    -0.00000     0.00000    -0.00008
   4       0.01527    -0.00728    -0.00009    -0.00000     0.00000    -0.00010
   5      -0.00000    -0.00000     0.00000    -0.00046     0.00013    -0.00000
   6       0.00000     0.00000    -0.00000    -0.00031     0.00009     0.00000
   7       0.18876     0.05527    -0.00040     0.00000    -0.00000    -0.00031
   8      -0.19457     0.29138     0.00007    -0.00000    -0.00000    -0.00058
   9      -0.23264    -0.19882    -0.00050     0.00000    -0.00000     0.00028
  10      -0.00125    -0.00042    -0.27716     0.00000    -0.00000     0.00005
  11      -0.00000    -0.00000     0.00000    -0.00035     0.00010    -0.00000
  12      -0.00061     0.00067     0.00005     0.00000    -0.00000     0.00086
  13      -0.00074    -0.00028    -0.00020    -0.00000    -0.00000     0.00243
  14      -0.00032     0.00026     0.00005    -0.00000     0.00000    -0.27719
  15      -0.00000    -0.00000     0.00000     0.00036    -0.00009     0.00000
  16      -0.00000     0.00000    -0.00000     0.00096    -0.00029     0.00000
  17      -0.00000     0.00000    -0.00000     0.00064    -0.00019     0.00000
  18      -0.00017    -0.00013     0.00019     0.00000    -0.00000    -0.00024
  19       0.80666     0.00015     0.00116    -0.00000     0.00000     0.00019
  20       0.00015     0.80562     0.00050    -0.00000     0.00000    -0.00024
  21       0.00116     0.00050     0.47717     0.00000    -0.00000     0.00000
  22      -0.00000    -0.00000     0.00000     0.59182    -0.00030    -0.00000
  23       0.00000     0.00000    -0.00000    -0.00030     0.59083     0.00000
  24       0.00019    -0.00024     0.00000    -0.00000     0.00000     0.47718
  25       0.00049     0.00055     0.00099    -0.00000    -0.00000     0.00005
  26      -0.00055     0.00072    -0.00039    -0.00000     0.00000     0.00011
  27       0.00000     0.00000    -0.00000     0.00015    -0.00008    -0.00000
  28      -0.00000     0.00000    -0.00000    -0.00014     0.00001     0.00000
  29       0.00000    -0.00000     0.00000     0.00016     0.00003    -0.00000
  30      -0.19359    -0.02525    -0.00046    -0.00000     0.00000    -0.00027
  31       0.07883    -0.35021     0.00017    -0.00000     0.00000     0.00079
  32       0.29387     0.07754    -0.00047     0.00000     0.00000     0.00020
  33      -0.00063    -0.00134    -0.00027     0.00000    -0.00000     0.00001
  34       0.00184    -0.00069     0.00028    -0.00000    -0.00000     0.00007
  35       0.00134    -0.00009    -0.00006    -0.00000     0.00000    -0.00002
  36      -0.00000    -0.00000     0.00000     0.00052    -0.00015    -0.00000
  37       0.01142    -0.05917     0.00020     0.00000    -0.00000    -0.00063
  38       0.02016     0.03461     0.00010     0.00000    -0.00000     0.00047
  39       0.06464    -0.00046    -0.00003     0.00000    -0.00000    -0.00018
  40       0.00000     0.00000    -0.00000     0.24529    -0.11935     0.00000
  41       0.00000     0.00000     0.00000     0.11925     0.24521     0.00000
  42       0.00000     0.00000    -0.00000    -0.00001    -0.00101     0.00000
  43      -0.00000    -0.00000     0.00000     0.00058    -0.00013    -0.00000
  44       0.00000    -0.00000     0.00000     0.00038     0.00087    -0.00000
  45       0.00000     0.00000    -0.00000    -0.00006     0.00002     0.00000
  46      -0.00514    -0.00139     0.00032     0.00000    -0.00000     0.00016
  47       0.00827     0.00275    -0.00088    -0.00000    -0.00000    -0.00015
  48      -0.00299     0.00989    -0.00000     0.00000     0.00000     0.00086
  49      -0.00000     0.00000    -0.00000     0.01221     0.04430     0.00000
  50      -0.00000    -0.00000     0.00000     0.04636    -0.01146    -0.00000
  51       0.00000     0.00000    -0.00000    -0.00029     0.00008     0.00000
  52      -0.07800    -0.14506     0.00045    -0.00000     0.00000    -0.00037
  53       0.09799    -0.10461    -0.00025     0.00000    -0.00000    -0.00048
  54       0.12867    -0.00832    -0.00011    -0.00000     0.00000    -0.00012
  55       0.00000     0.00000    -0.00000    -0.00000     0.00000     0.00000
  56      -0.03099    -0.01695    -0.00126     0.00000    -0.00000     0.00032
  57       0.02995    -0.00479    -0.00052     0.00000    -0.00000     0.00002
  58       0.00943    -0.04095    -0.00012    -0.00000     0.00000     0.00171
  59       0.00000     0.00000    -0.00000    -0.00204     0.00059     0.00000

           25          26          27          28          29          30  
       ----------- ----------- ----------- ----------- ----------- -----------
   1      -0.00000    -0.00000     0.00014    -0.00009     0.00015    -0.00000
   2       0.00002    -0.00013    -0.00000     0.00000    -0.00000     0.01732
   3       0.00011     0.00000     0.00000     0.00000    -0.00000     0.01124
   4      -0.00000     0.00008    -0.00000     0.00000    -0.00000     0.00113
   5      -0.00000    -0.00000     0.00036    -0.00025     0.00039    -0.00000
   6       0.00000     0.00000     0.00006    -0.00004     0.00007     0.00000
   7      -0.00001     0.00028    -0.00000    -0.00000     0.00000    -0.52295
   8       0.00048     0.00033    -0.00000    -0.00000     0.00000     0.03847
   9      -0.00020    -0.00041     0.00000    -0.00000     0.00000    -0.02328
  10      -0.00021    -0.00001    -0.00000    -0.00000     0.00000     0.00057
  11      -0.00000    -0.00000    -0.00004     0.00002    -0.00004    -0.00000
  12       0.05373     0.27188    -0.00000    -0.00000     0.00000     0.00028
  13      -0.27183     0.05378     0.00000    -0.00000     0.00000     0.00020
  14      -0.00129     0.00325     0.00000     0.00000    -0.00000     0.00034
  15      -0.00000    -0.00000     0.25531     0.04144    -0.08606    -0.00000
  16      -0.00000     0.00000     0.08394     0.02135     0.25869     0.00000
  17      -0.00000     0.00000     0.04606    -0.26871     0.00733     0.00000
  18       0.00044    -0.00025     0.00000    -0.00000     0.00000     0.30279
  19       0.00049    -0.00055     0.00000    -0.00000     0.00000    -0.19359
  20       0.00055     0.00072     0.00000     0.00000    -0.00000    -0.02525
  21       0.00099    -0.00039    -0.00000    -0.00000     0.00000    -0.00046
  22      -0.00000    -0.00000     0.00015    -0.00014     0.00016    -0.00000
  23      -0.00000     0.00000    -0.00008     0.00001     0.00003     0.00000
  24       0.00005     0.00011    -0.00000     0.00000    -0.00000    -0.00027
  25       0.47668     0.00031     0.00000     0.00000     0.00000     0.00022
  26       0.00031     0.47786    -0.00000     0.00000    -0.00000     0.00011
  27       0.00000    -0.00000     0.37805    -0.00034     0.00025     0.00000
  28       0.00000     0.00000    -0.00034     0.37765    -0.00034     0.00000
  29       0.00000    -0.00000     0.00025    -0.00034     0.37801    -0.00000
  30       0.00022     0.00011     0.00000     0.00000    -0.00000     0.71362
  31       0.00054     0.00053     0.00000     0.00000    -0.00000     0.00020
  32       0.00001    -0.00014    -0.00000     0.00000    -0.00000    -0.00019
  33      -0.00028    -0.00028    -0.00000    -0.00000     0.00000     0.00128
  34      -0.00006    -0.00040     0.00000    -0.00000     0.00000    -0.03236
  35       0.00058    -0.00055     0.00000     0.00000    -0.00000    -0.32341
  36      -0.00000    -0.00000    -0.00001     0.00000    -0.00001    -0.00000
  37       0.00025     0.00000     0.00000     0.00000    -0.00000    -0.09913
  38       0.00017    -0.00031    -0.00000    -0.00000     0.00000    -0.20154
  39       0.00010    -0.00022    -0.00000     0.00000    -0.00000    -0.05128
  40       0.00000     0.00000     0.00036    -0.00021     0.00051     0.00000
  41       0.00000    -0.00000     0.00015     0.00003    -0.00008     0.00000
  42       0.00000     0.00000    -0.12825    -0.01043     0.04621     0.00000
  43       0.00000     0.00000     0.00699     0.12355     0.05217    -0.00000
  44       0.00000    -0.00000    -0.04762     0.05355    -0.11735    -0.00000
  45       0.00000     0.00000    -0.00004     0.00003    -0.00004     0.00000
  46       0.00074    -0.00093    -0.00000    -0.00000     0.00000    -0.07442
  47      -0.00047     0.00035     0.00000    -0.00000     0.00000     0.00301
  48      -0.00031    -0.00085     0.00000     0.00000    -0.00000    -0.00461
  49      -0.00000     0.00000     0.00057     0.00047    -0.00113    -0.00000
  50      -0.00000    -0.00000     0.00050     0.00006     0.00100    -0.00000
  51       0.00000     0.00000    -0.00010     0.00007    -0.00011     0.00000
  52       0.00035     0.00029    -0.00000    -0.00000     0.00000    -0.01936
  53       0.00017     0.00031     0.00000    -0.00000     0.00000     0.12223
  54      -0.00022     0.00038     0.00000     0.00000    -0.00000    -0.46684
  55       0.00000     0.00000    -0.00017     0.00012    -0.00018     0.00000
  56      -0.00044    -0.00053     0.00000    -0.00000     0.00000    -0.00096
  57      -0.00027     0.00009    -0.00000    -0.00000     0.00000    -0.07540
  58      -0.00096    -0.00111     0.00000     0.00000    -0.00000     0.01433
  59       0.00000     0.00000    -0.00212     0.00146    -0.00232     0.00000

           31          32          33          34          35          36  
       ----------- ----------- ----------- ----------- ----------- -----------
[...]
  53       0.00000    -0.00000     0.62131     0.08288    -0.78452     0.31891
  54      -0.00000     0.00000     0.02403    -1.17292     0.01745    -1.26895
  55       0.00000    -0.00000    -0.54663     0.05023     0.44627     0.26861
  56      -0.00001    -0.00002    -0.13754    -0.40045    -0.24898     0.03041
  57       0.00000    -0.00009    -1.07403     0.50952    -0.44169    -0.41605
  58      -0.00001    -0.00002     0.58627     0.94544     0.21075    -0.80191
  59       0.00000    -0.00009     0.27259    -0.21472     0.38373     0.03955

           49          50          51          52          53          54  
       ----------- ----------- ----------- ----------- ----------- -----------
   1      -0.00000    -0.00000    -0.00000    -0.00003     0.00001    -0.00001
   2      -0.00001    -0.00000    -0.00000    -0.00022     0.00006    -0.00007
   3      -0.00001    -0.00001    -0.00000    -0.00037     0.00010    -0.00013
   4      -0.00000    -0.00000     0.00001     0.00011    -0.00003     0.00029
   5       0.00002     0.00002    -0.00003     0.00005    -0.00001    -0.00060
   6       0.00001     0.00001    -0.00003     0.00000     0.00001    -0.00056
   7      -0.00739    -0.01076     0.02456    -0.46307    -0.03807     0.84349
   8      -0.01281     0.02315     0.00664     0.35050     0.87393     0.22798
   9       0.02287     0.00949     0.01166     0.77600    -0.41744     0.40037
  10      -0.03860    -0.05620     0.13472    -1.87320    -0.15399     3.42172
  11      -0.06691     0.12089     0.03641     1.41783     3.53523     0.92483
  12       0.11943     0.04956     0.06394     3.13911    -1.68865     1.62413
  13      -0.00090    -0.00131     0.00407     0.05276     0.00434    -0.09496
  14      -0.00156     0.00282     0.00110    -0.03994    -0.09958    -0.02566
  15       0.00279     0.00116     0.00193    -0.08842     0.04756    -0.04507
  16       0.02406     0.03502    -0.07339     1.62629     0.13370    -2.90359
  17       0.04166    -0.07527    -0.01982    -1.23095    -3.06925    -0.78479
  18      -0.07437    -0.03087    -0.03481    -2.72533     1.46606    -1.37820
  19      -0.00015    -0.00022     0.00042     0.00318     0.00026    -0.00805
  20      -0.00026     0.00047     0.00011    -0.00241    -0.00601    -0.00217
  21       0.00046     0.00019     0.00020    -0.00533     0.00287    -0.00382
  22      -0.00001    -0.00001     0.00001     0.00003    -0.00001     0.00029
  23      -0.00000    -0.00000     0.00000    -0.00000     0.00000    -0.00000
  24      -0.00000    -0.00000     0.00000    -0.00000     0.00000     0.00000
  25      -0.00001    -0.00001     0.00001     0.00003    -0.00001     0.00029
  26      -0.00000     0.00000     0.00000    -0.00000     0.00000     0.00000
  27      -0.00001    -0.00001     0.00001     0.00003    -0.00001     0.00029
  28       0.00000     0.00000     0.00000     0.00009    -0.00003     0.00008
  29       0.00000    -0.00000    -0.00000     0.00000    -0.00000    -0.00000
  30      -0.00000     0.00000    -0.00000     0.00000    -0.00000    -0.00000
  31       0.00000     0.00000     0.00000     0.00009    -0.00003     0.00008
  32       0.00000    -0.00000    -0.00000     0.00000    -0.00000    -0.00000
  33       0.00000     0.00000     0.00000     0.00009    -0.00003     0.00008
  34      -0.00001    -0.00000     0.00001    -0.00001     0.00000     0.00020
  35       0.00000     0.00000    -0.00000     0.00000    -0.00000    -0.00000
  36       0.00000     0.00000    -0.00000     0.00000    -0.00000    -0.00000
  37      -0.00001    -0.00000     0.00001    -0.00001     0.00000     0.00020
  38       0.00000    -0.00000    -0.00000    -0.00000    -0.00000    -0.00000
  39      -0.00001    -0.00000     0.00001    -0.00001     0.00000     0.00020
  40      -0.54834    -0.79833     0.38246     1.05679     0.08688    -1.89670
  41      -1.36438     1.11458     1.19588    -0.77396    -1.99232    -0.55455
  42       0.96952    -0.35428     2.10013    -1.72544     0.95641    -0.97387
  43      -0.55602     1.53143    -1.19566     0.99271     0.03429    -1.83617
  44      -0.17585     2.52200     1.55570    -0.06560    -0.06154    -0.05967
  45       2.29387     0.99873    -0.27259     0.94334     0.12487    -1.87157
  46       0.27989    -0.50569    -0.40298    -0.76624    -1.91054    -0.49322
  47      -0.84013     0.40798    -0.56753    -1.70578     0.88937    -0.87154
  48       0.68568     0.11168    -0.07368    -0.79239    -1.91323    -0.50586
  49      -0.13889    -0.05764    -0.56164    -1.70870     0.91917    -0.87177
  50       0.25748     0.37487    -0.16945    -1.07193    -0.08812     1.90134
  51       0.64508    -0.51703    -0.56953     0.80048     2.02213     0.53081
  52      -0.44759     0.17756    -1.00017     1.77725    -0.96789     0.93218
  53       0.26117    -0.74380     0.58707    -1.04507    -0.06608     1.87691
  54       0.08444    -1.21098    -0.74576     0.02751     0.02580     0.02408
  55      -1.10725    -0.48802     0.14457    -1.02437    -0.10405     1.89120
  56      -0.14444     0.26097     0.19693     0.79724     1.98784     0.50606
  57       0.42134    -0.18845     0.27864     1.76901    -0.93978     0.89088
  58      -0.33929    -0.03547     0.03907     0.80821     1.98897     0.51116
  59       0.08463     0.03512     0.27582     1.77023    -0.95228     0.89097

           55          56          57          58          59  
       ----------- ----------- ----------- ----------- -----------
   1       0.74713     1.11068     0.00003    -0.00002     0.00002
   2       5.52979    10.54868     0.00029    -0.00015     0.00021
   3       7.40049    20.03964     0.00055    -0.00029     0.00038
   4      -5.31759    -8.99384    -0.00030     0.00016    -0.00017
   5       3.06627    16.80371     0.00062    -0.00032     0.00032
   6      -4.43292     3.28991     0.00012    -0.00006    -0.00004
   7      -0.00001    -0.00002    -1.37624     0.16986     2.53950
   8       0.00001    -0.00000     1.55471     2.34096     0.68638
   9       0.00006    -0.00000     2.01417    -1.69089     1.20538
  10      -0.00003    -0.00006    -2.76217     0.34092     5.10210
  11       0.00004     0.00001     3.12036     4.69839     1.37901
  12       0.00021     0.00010     4.04251    -3.39367     2.42173
  13      -0.00000    -0.00000     1.26827    -0.15654    -2.33954
  14       0.00001     0.00003    -1.43273    -2.15730    -0.63234
  15       0.00004     0.00013    -1.85614     1.55823    -1.11047
  16       0.00017     0.00033     0.13124    -0.01620    -0.24253
  17      -0.00025    -0.00033    -0.14826    -0.22324    -0.06555
  18      -0.00134    -0.00187    -0.19208     0.16125    -0.11512
  19      -0.00001    -0.00002     0.03387    -0.00418    -0.06214
  20       0.00001     0.00002    -0.03826    -0.05761    -0.01679
  21       0.00007     0.00010    -0.04956     0.04161    -0.02949
  22      -1.52608    -8.05059    -0.00028     0.00014    -0.00014
  23       0.00147     0.00256     0.00000     0.00000     0.00000
  24       0.00258     0.00450     0.00000    -0.00000     0.00000
  25      -1.52860    -8.05499    -0.00028     0.00014    -0.00014
  26       0.00070     0.00122     0.00000     0.00000     0.00000
  27      -1.52818    -8.05426    -0.00028     0.00014    -0.00014
  28      -0.74770    -6.96370    -0.00020     0.00010    -0.00013
  29       0.00280    -0.00365    -0.00000     0.00000    -0.00000
  30       0.00491    -0.00641    -0.00000     0.00000    -0.00000
  31      -0.75249    -6.95744    -0.00020     0.00010    -0.00012
  32       0.00133    -0.00173    -0.00000    -0.00000    -0.00000
  33      -0.75171    -6.95847    -0.00020     0.00010    -0.00012
  34       1.47616    -1.53419    -0.00006     0.00003     0.00000
  35      -0.00101    -0.00093    -0.00000    -0.00000    -0.00000
  36      -0.00178    -0.00163    -0.00000     0.00000    -0.00000
  37       1.47789    -1.53259    -0.00006     0.00003     0.00000
  38      -0.00048    -0.00044    -0.00000    -0.00000    -0.00000
  39       1.47761    -1.53285    -0.00006     0.00003     0.00000
  40      -0.00001    -0.00002     1.47764    -0.18238    -2.73117
  41       0.00002     0.00005    -1.67078    -2.51324    -0.73550
  42       0.00011     0.00026    -2.16526     1.81579    -1.29163
  43      -0.00001    -0.00002     1.48200    -0.18009    -2.73506
  44      -0.00000    -0.00000     0.00456     0.00279     0.00383
  45      -0.00001    -0.00002     1.48378    -0.18596    -2.73279
  46       0.00002     0.00005    -1.67222    -2.51790    -0.73944
  47       0.00011     0.00026    -2.16559     1.81993    -1.29821
  48       0.00002     0.00005    -1.67067    -2.51806    -0.73863
  49       0.00011     0.00026    -2.16578     1.81816    -1.29819
  50      -0.00009    -0.00017    -0.16098     0.01987     0.29803
  51       0.00013     0.00017     0.18263     0.27373     0.07913
  52       0.00070     0.00097     0.23695    -0.19795     0.13897
  53      -0.00009    -0.00017    -0.16317     0.01872     0.30007
  54       0.00000     0.00000    -0.00228    -0.00140    -0.00202
  55      -0.00009    -0.00017    -0.16406     0.02166     0.29888
  56       0.00013     0.00017     0.18334     0.27607     0.08121
  57       0.00070     0.00097     0.23712    -0.20003     0.14243
  58       0.00013     0.00017     0.18257     0.27615     0.08078
  59       0.00070     0.00097     0.23721    -0.19914     0.14242
  int_init: cando_txs set to always be  F
                                NWChem TDDFT Module
                                -------------------


            General Information
            -------------------
           No. of orbitals :     118
            Alpha orbitals :      59
             Beta orbitals :      59
        Alpha frozen cores :       0
         Beta frozen cores :       0
     Alpha frozen virtuals :       0
      Beta frozen virtuals :       0
         Spin multiplicity :       2
    Number of AO functions :      59
        Use of symmetry is : off
      Symmetry adaption is : off
         Schwarz screening :  0.10D-07

              XC Information
              --------------
              Hartree-Fock (Exact) Exchange   1.00          
              LC-wPBE(h)Exchange Functional   1.00          
     Perdew 1991 LDA Correlation Functional   1.00 local    
    PerdewBurkeErnz. Correlation Functional   1.00 non-local
           Alpha           :  0.00
           Beta            :  1.00
           Gamma           :  0.30

             TDDFT Information
             -----------------
          Calculation type : TDDFT             
         Wavefunction type : Unrestricted
          No. of electrons :      13
           Alpha electrons :       7
            Beta electrons :       6
              No. of roots :       5
          Max subspacesize :    5000
            Max iterations :     100
               Target root :       1
           Target symmetry : none
      Symmetry restriction : off
                 Algorithm : Optimal
        Davidson threshold :  0.10D-03

            Memory Information
            ------------------
          Available GA space size is       52428793038 doubles
          Available MA space size is        4194415692 doubles
          Length of a trial vector is          364     318
          Algorithm : Incore multiple tensor contraction
          Estimated peak GA usage is          14231628 doubles
          Estimated peak MA usage is             18000 doubles

    5 smallest eigenvalue differences (eV) 
--------------------------------------------------------
  No. Spin  Occ  Vir  Irrep   E(Occ)    E(Vir)   E(Diff)
--------------------------------------------------------
    1    1    7    8 a        -0.217    -0.011     5.614
    2    1    7    9 a        -0.217    -0.011     5.614
    3    1    7   10 a        -0.217     0.024     6.554
    4    1    7   11 a        -0.217     0.042     7.064
    5    1    7   12 a        -0.217     0.046     7.151
--------------------------------------------------------

  Entering Davidson iterations
  Unrestricted

  Iter   NTrls   NConv    DeltaV     DeltaE      Time   
  ----  ------  ------  ---------  ---------  --------- 
    1      5       0     0.62E-01   0.10+100        3.1
    2     15       0     0.31E-01   0.17E-01        5.0
    3     25       0     0.16E-01   0.14E-02        5.2
 ------------------------------------------------------------------------
 tddft_diagon: negative excitation energy                   0
 ------------------------------------------------------------------------
 ------------------------------------------------------------------------
  current input line : 
 tddft_diagon: negative excitation energy                   0
 ------------------------------------------------------------------------
 ------------------------------------------------------------------------
  current input line : 
     0: 
 ------------------------------------------------------------------------
 ------------------------------------------------------------------------
 This type of error is most commonly associated with calculations not reaching convergence criteria
 ------------------------------------------------------------------------
 For more information see the NWChem manual at https://nwchemgit.github.io
 tddft_diagon: negative excitation energy                   0
 ------------------------------------------------------------------------
 ------------------------------------------------------------------------
  current input line : 
     0: 
 ------------------------------------------------------------------------
 ------------------------------------------------------------------------
 This type of error is most commonly associated with calculations not reaching convergence criteria
 ------------------------------------------------------------------------
 For more information see the NWChem manual at https://nwchemgit.github.io


 For further details see manual section:                                                                                                                                                                                                                                                                
 tddft_diagon: negative excitation energy                   0
 ------------------------------------------------------------------------
 ------------------------------------------------------------------------
  current input line : 
     0: 
 ------------------------------------------------------------------------
 ------------------------------------------------------------------------
 This type of error is most commonly associated with calculations not reaching convergence criteria
 ------------------------------------------------------------------------
 For more information see the NWChem manual at https://nwchemgit.github.io


 For further details see manual section:                                                                                                                                                                                                                                                                
 tddft_diagon: negative excitation energy                   0
 ------------------------------------------------------------------------
 ------------------------------------------------------------------------
  current input line : 
     0: 
 ------------------------------------------------------------------------
 ------------------------------------------------------------------------
 This type of error is most commonly associated with calculations not reaching convergence criteria
 ------------------------------------------------------------------------
 For more information see the NWChem manual at https://nwchemgit.github.io


 For further details see manual section:                                                                                                                                                                                                                                                                
 tddft_diagon: negative excitation energy                   0
 ------------------------------------------------------------------------
 ------------------------------------------------------------------------
  current input line : 
     0: 
 ------------------------------------------------------------------------
 ------------------------------------------------------------------------
 This type of error is most commonly associated with calculations not reaching convergence criteria
 ------------------------------------------------------------------------
 For more information see the NWChem manual at https://nwchemgit.github.io


 For further details see manual section:                                                                                                                                                                                                                                                                
 tddft_diagon: negative excitation energy                   0
 ------------------------------------------------------------------------
 ------------------------------------------------------------------------
  current input line : 
     0: 
 ------------------------------------------------------------------------
 ------------------------------------------------------------------------
 This type of error is most commonly associated with calculations not reaching convergence criteria
 ------------------------------------------------------------------------
 For more information see the NWChem manual at https://nwchemgit.github.io


 For further details see manual section:                                                                                                                                                                                                                                                                
 tddft_diagon: negative excitation energy                   0
 ------------------------------------------------------------------------
 ------------------------------------------------------------------------
  current input line : 
     0: 
 ------------------------------------------------------------------------
 ------------------------------------------------------------------------
 This type of error is most commonly associated with calculations not reaching convergence criteria
 ------------------------------------------------------------------------
 For more information see the NWChem manual at https://nwchemgit.github.io


 For further details see manual section:                                                                                                                                                                                                                                                                
    23:  task tddft energy
 ------------------------------------------------------------------------
 ------------------------------------------------------------------------
 This type of error is most commonly associated with calculations not reaching convergence criteria
 ------------------------------------------------------------------------
 For more information see the NWChem manual at https://nwchemgit.github.io


 For further details see manual section:                                                                                                                                                                                                                                                                


 For further details see manual section:                                                                                                                                                                                                                                                                
