 argument  1 = /home/aditisingh4812/nw_chem/nwchem-run/nwchem-run/tddft/open/open_atom/geom-MOL/al.nw
                                         
                                         


             Northwest Computational Chemistry Package (NWChem) 7.2.3
             --------------------------------------------------------


                    Environmental Molecular Sciences Laboratory
                       Pacific Northwest National Laboratory
                                Richland, WA 99352

                              Copyright (c) 1994-2022
                       Pacific Northwest National Laboratory
                            Battelle Memorial Institute

             NWChem is an open-source computational chemistry package
                        distributed under the terms of the
                      Educational Community License (ECL) 2.0
             A copy of the license is included with this distribution
                              in the LICENSE.TXT file

                                  ACKNOWLEDGMENT
                                  --------------

            This software and its documentation were developed at the
            EMSL at Pacific Northwest National Laboratory, a multiprogram
            national laboratory, operated for the U.S. Department of Energy
            by Battelle under Contract Number DE-AC05-76RL01830. Support
            for this work was provided by the Department of Energy Office
            of Biological and Environmental Research, Office of Basic
            Energy Sciences, and the Office of Advanced Scientific Computing.


           Job information
           ---------------

    hostname        = p17
    program         = /home/aditisingh4812/nw_chem/nwchem-7.2.3-release.revision-d690e065-srconly.2024-08-27/nwchem-7.2.3/bin/LINUX64/nwchem
    date            = Thu May  8 11:44:53 2025

    compiled        = Mon_Apr_07_18:51:54_2025
    source          = /home/aditisingh4812/nw_chem/nwchem-7.2.3-release.revision-d690e065-srconly.2024-08-27/nwchem-7.2.3
    nwchem branch   = 7.2.3
    nwchem revision = d690e065
    ga revision     = 5.8.0
    use scalapack   = F
    input           = /home/aditisingh4812/nw_chem/nwchem-run/nwchem-run/tddft/open/open_atom/geom-MOL/al.nw
    prefix          = al.
    data base       = ./al.db
    status          = startup
    nproc           =        8
    time left       =     -1s



           Memory information
           ------------------

    heap     = 2621439998 doubles =  20000.0 Mbytes
    stack    = 2621439995 doubles =  20000.0 Mbytes
    global   = 6553600000 doubles =  50000.0 Mbytes (distinct from heap & stack)
    total    = ********** doubles =  90000.0 Mbytes
    verify   = yes
    hardfail = no 


           Directory information
           ---------------------

  0 permanent = .
  0 scratch   = .




                                NWChem Input Module
                                -------------------



 Scaling coordinates for geometry "geometry" by  1.889725989
 (inverse scale =  0.529177249)



                             Geometry "geometry" -> ""
                             -------------------------

 Output coordinates in angstroms (scale by  1.889725989 to convert to a.u.)

  No.       Tag          Charge          X              Y              Z
 ---- ---------------- ---------- -------------- -------------- --------------
    1 Al                  13.0000     0.00000000     0.00000000     0.00000000

      Atomic Mass 
      ----------- 

      Al                26.981540


 Effective nuclear repulsion energy (a.u.)       0.0000000000

            Nuclear Dipole moment (a.u.) 
            ----------------------------
        X                 Y               Z
 ---------------- ---------------- ----------------
     0.0000000000     0.0000000000     0.0000000000


            XYZ format geometry
            -------------------
     1
 geometry
 Al                    0.00000000     0.00000000     0.00000000



 Summary of "ao basis" -> "" (cartesian)
 ------------------------------------------------------------------------------
       Tag                 Description            Shells   Functions and Types
 ---------------- ------------------------------  ------  ---------------------
 *                        aug-cc-pVTZ                 on all atoms 


  pbe96 is a nonlocal functional; adding pw91lda local functional. 

                                 NWChem DFT Module
                                 -----------------


                      Basis "ao basis" -> "ao basis" (cartesian)
                      -----
  Al (Aluminium)
  --------------
            Exponent  Coefficients 
       -------------- ---------------------------------------------------------
  1 S  2.05500000E+05  0.000068
  1 S  3.07800000E+04  0.000527
  1 S  7.00600000E+03  0.002762
  1 S  1.98500000E+03  0.011473
  1 S  6.49100000E+02  0.039819
  1 S  2.35000000E+02  0.115040
  1 S  9.16200000E+01  0.260887
  1 S  3.76700000E+01  0.396386
  1 S  1.59100000E+01  0.284597
  1 S  5.85000000E+00  0.044458
  1 S  2.54200000E+00 -0.004898
  1 S  1.05700000E+00  0.002613
  1 S  1.45500000E-01  0.000722

  2 S  2.05500000E+05 -0.000018
  2 S  3.07800000E+04 -0.000137
  2 S  7.00600000E+03 -0.000719
  2 S  1.98500000E+03 -0.003011
  2 S  6.49100000E+02 -0.010601
  2 S  2.35000000E+02 -0.032135
  2 S  9.16200000E+01 -0.080316
  2 S  3.76700000E+01 -0.156794
  2 S  1.59100000E+01 -0.168376
  2 S  5.85000000E+00  0.126879
  2 S  2.54200000E+00  0.561494
  2 S  1.05700000E+00  0.436613
  2 S  1.45500000E-01 -0.011456

  3 S  2.05500000E+05  0.000004
  3 S  3.07800000E+04  0.000032
  3 S  7.00600000E+03  0.000166
  3 S  1.98500000E+03  0.000695
  3 S  6.49100000E+02  0.002455
  3 S  2.35000000E+02  0.007446
  3 S  9.16200000E+01  0.018825
  3 S  3.76700000E+01  0.037277
  3 S  1.59100000E+01  0.041950
  3 S  5.85000000E+00 -0.035438
  3 S  2.54200000E+00 -0.175132
  3 S  1.05700000E+00 -0.276203
  3 S  1.45500000E-01  0.652809

  4 S  2.93100000E-01  1.000000

  5 S  5.65000000E-02  1.000000

  6 S  2.21000000E-02  1.000000

  7 P  4.44400000E+02  0.001628
  7 P  1.05100000E+02  0.013069
  7 P  3.34700000E+01  0.061234
  7 P  1.23300000E+01  0.187870
  7 P  4.86900000E+00  0.360452
  7 P  1.96100000E+00  0.408454
  7 P  1.88800000E-01  0.009765

  8 P  4.44400000E+02 -0.000286
  8 P  1.05100000E+02 -0.002423
  8 P  3.34700000E+01 -0.010866
  8 P  1.23300000E+01 -0.036431
  8 P  4.86900000E+00 -0.064107
  8 P  1.96100000E+00 -0.097224
  8 P  1.88800000E-01  0.503448

  9 P  7.83400000E-01  1.000000

 10 P  5.55700000E-02  1.000000

 11 P  1.46000000E-02  1.000000

 12 D  1.09000000E-01  1.000000

 13 D  3.33000000E-01  1.000000

 14 D  3.56000000E-02  1.000000

 15 F  2.44000000E-01  1.000000

 16 F  8.58000000E-02  1.000000



 Summary of "ao basis" -> "ao basis" (cartesian)
 ------------------------------------------------------------------------------
       Tag                 Description            Shells   Functions and Types
 ---------------- ------------------------------  ------  ---------------------
 Al                       aug-cc-pVTZ               16       59   6s5p3d2f




 Summary of "ao basis" -> "ao basis" (cartesian)
 ------------------------------------------------------------------------------
       Tag                 Description            Shells   Functions and Types
 ---------------- ------------------------------  ------  ---------------------
 Al                       aug-cc-pVTZ               16       59   6s5p3d2f




                         Geometry "geometry" -> "geometry"
                         ---------------------------------

 Output coordinates in angstroms (scale by  1.889725989 to convert to a.u.)

  No.       Tag          Charge          X              Y              Z
 ---- ---------------- ---------- -------------- -------------- --------------
    1 Al                  13.0000     0.00000000     0.00000000     0.00000000

      Atomic Mass 
      ----------- 

      Al                26.981540


 Effective nuclear repulsion energy (a.u.)       0.0000000000

            Nuclear Dipole moment (a.u.) 
            ----------------------------
        X                 Y               Z
 ---------------- ---------------- ----------------
     0.0000000000     0.0000000000     0.0000000000


                      Basis "ao basis" -> "ao basis" (cartesian)
                      -----
  Al (Aluminium)
  --------------
            Exponent  Coefficients 
       -------------- ---------------------------------------------------------
  1 S  2.05500000E+05  0.466915
  1 S  3.07800000E+04  0.872969
  1 S  7.00600000E+03  1.507283
  1 S  1.98500000E+03  2.431384
  1 S  6.49100000E+02  3.649099
  1 S  2.35000000E+02  4.920549
  1 S  9.16200000E+01  5.505654
  1 S  3.76700000E+01  4.295155
  1 S  1.59100000E+01  1.615648
  1 S  5.85000000E+00  0.119175
  1 S  2.54200000E+00 -0.007027
  1 S  1.05700000E+00  0.001941
  1 S  1.45500000E-01  0.000121

  2 S  2.05500000E+05 -0.124072
  2 S  3.07800000E+04 -0.232360
  2 S  7.00600000E+03 -0.401235
  2 S  1.98500000E+03 -0.652709
  2 S  6.49100000E+02 -0.993617
  2 S  2.35000000E+02 -1.405706
  2 S  9.16200000E+01 -1.733463
  2 S  3.76700000E+01 -1.737594
  2 S  1.59100000E+01 -0.977586
  2 S  5.85000000E+00  0.347839
  2 S  2.54200000E+00  0.823851
  2 S  1.05700000E+00  0.331723
  2 S  1.45500000E-01 -0.001967

  3 S  2.05500000E+05  0.046769
  3 S  3.07800000E+04  0.087515
  3 S  7.00600000E+03  0.151332
  3 S  1.98500000E+03  0.245876
  3 S  6.49100000E+02  0.375596
  3 S  2.35000000E+02  0.531666
  3 S  9.16200000E+01  0.663209
  3 S  3.76700000E+01  0.674304
  3 S  1.59100000E+01  0.397554
  3 S  5.85000000E+00 -0.158579
  3 S  2.54200000E+00 -0.419434
  3 S  1.05700000E+00 -0.342532
  3 S  1.45500000E-01  0.182957

  4 S  2.93100000E-01  0.283904

  5 S  5.65000000E-02  0.082594

  6 S  2.21000000E-02  0.040851

  7 P  4.44400000E+02  5.371468
  7 P  1.05100000E+02  7.112040
  7 P  3.34700000E+01  7.972075
  7 P  1.23300000E+01  7.019718
  7 P  4.86900000E+00  4.216048
  7 P  1.96100000E+00  1.532846
  7 P  1.88800000E-01  0.001965

  8 P  4.44400000E+02 -1.647233
  8 P  1.05100000E+02 -2.298927
  8 P  3.34700000E+01 -2.466240
  8 P  1.23300000E+01 -2.373151
  8 P  4.86900000E+00 -1.307260
  8 P  1.96100000E+00 -0.636098
  8 P  1.88800000E-01  0.176649

  9 P  7.83400000E-01  1.050557

 10 P  5.55700000E-02  0.038458

 11 P  1.46000000E-02  0.007234

 12 D  1.09000000E-01  0.034033

 13 D  3.33000000E-01  0.240263

 14 D  3.56000000E-02  0.004802

 15 F  2.44000000E-01  0.061600

 16 F  8.58000000E-02  0.005865



    Basis function labels
    ---------------------
       No.  Atm El Type
       ---  --- -- ----
        1    1 Al s          
        2    1 Al s          
        3    1 Al s          
        4    1 Al s          
        5    1 Al s          
        6    1 Al s          
        7    1 Al px         
        8    1 Al py         
        9    1 Al pz         
       10    1 Al px         
       11    1 Al py         
       12    1 Al pz         
       13    1 Al px         
       14    1 Al py         
       15    1 Al pz         
       16    1 Al px         
       17    1 Al py         
       18    1 Al pz         
       19    1 Al px         
       20    1 Al py         
       21    1 Al pz         
       22    1 Al dxx        
       23    1 Al dxy        
       24    1 Al dxz        
       25    1 Al dyy        
       26    1 Al dyz        
       27    1 Al dzz        
       28    1 Al dxx        
       29    1 Al dxy        
       30    1 Al dxz        
       31    1 Al dyy        
       32    1 Al dyz        
       33    1 Al dzz        
       34    1 Al dxx        
       35    1 Al dxy        
       36    1 Al dxz        
       37    1 Al dyy        
       38    1 Al dyz        
       39    1 Al dzz        
       40    1 Al fxxx       
       41    1 Al fxxy       
       42    1 Al fxxz       
       43    1 Al fxyy       
       44    1 Al fxyz       
       45    1 Al fxzz       
       46    1 Al fyyy       
       47    1 Al fyyz       
       48    1 Al fyzz       
       49    1 Al fzzz       
       50    1 Al fxxx       
       51    1 Al fxxy       
       52    1 Al fxxz       
       53    1 Al fxyy       
       54    1 Al fxyz       
       55    1 Al fxzz       
       56    1 Al fyyy       
       57    1 Al fyyz       
       58    1 Al fyzz       
       59    1 Al fzzz       
  int_init: cando_txs set to always be  F

 Schwarz integral screening summary 
 ---------------------------------- 

        No. of atom pairs =       1
       No. of shell pairs =     136

 Atomic screening 

   value      no.     value      no.     value      no.     value      no.   
  -------- ------    -------- ------    -------- ------    -------- ------   
  0.00D+00      0    1.00D-13      0    1.00D-12      0    1.00D-11      0
  1.00D-10      0    1.00D-09      0    1.00D-08      0    1.00D-07      0
  1.00D-06      0    1.00D-05      0    1.00D-04      0    1.00D-03      0
  1.00D-02      0    1.00D-01      0    1.00D+00      1    1.00D+01      0


 Shell screening 

   value      no.     value      no.     value      no.     value      no.   
  -------- ------    -------- ------    -------- ------    -------- ------   
  0.00D+00      0    1.00D-13      0    1.00D-12      0    1.00D-11      0
  1.00D-10      0    1.00D-09      0    1.00D-08      0    1.00D-07      0
  1.00D-06      0    1.00D-05      0    1.00D-04      2    1.00D-03      4
  1.00D-02     13    1.00D-01     53    1.00D+00     64    1.00D+01      0


  Caching 1-el integrals 
  atom                     1  - neighbor  & S                     1   10.000000000000000       exp AB    1.4600000000000011E-002   1.4600000000000011E-002
 zmins =     0.014600000    0.014600000 lprod =   2 range =        27.15 acc   0.10D-06
 sh     0.000000000
  Center:                     1  Radial Pts. & Wghts. 
    1        0.000003789           1.6315496E-16
    2        0.000030310           4.1767977E-14
    3        0.000102296           1.0704889E-12
    4        0.000242482           1.0693230E-11
    5        0.000473606           6.3740698E-11
    6        0.000818411           2.7409950E-10
    7        0.001299649           9.4089341E-10
    8        0.001940087           2.7387539E-09
    9        0.002762507           7.0286526E-09
   10        0.003789717           1.6332607E-08
   11        0.005044551           3.5022558E-08
   12        0.006549882           7.0280905E-08
   13        0.008328624           1.3339761E-07
   14        0.010403744           2.4147658E-07
   15        0.012798271           4.1963208E-07
   16        0.015535303           7.0376478E-07
   17        0.018638020           1.1440158E-06
   18        0.022129695           1.8090079E-06
   19        0.026033707           2.7909915E-06
   20        0.030373551           4.2120289E-06
   21        0.035172856           6.2313564E-06
   22        0.040455395           9.0540854E-06
   23        0.046245106           1.2941412E-05
   24        0.052566104           1.8222523E-05
   25        0.059442702           2.5308416E-05
   26        0.066899425           3.4707844E-05
   27        0.074961035           4.7045655E-05
   28        0.083652547           6.3083791E-05
   29        0.092999253           8.3745261E-05
   30        0.103026745           1.1014142E-04
   31        0.113760939           1.4360292E-04
   32        0.125228096           1.8571478E-04
   33        0.137454857           2.3835601E-04
   34        0.150468265           3.0374426E-04
   35        0.164295795           3.8448618E-04
   36        0.178965388           4.8363397E-04
   37        0.194505483           6.0474896E-04
   38        0.210945049           7.5197294E-04
   39        0.228313625           9.3010813E-04
   40        0.246641359           1.1447067E-03
   41        0.265959046           1.4021714E-03
   42        0.286298174           1.7098672E-03
   43        0.307690966           2.0762479E-03
   44        0.330170433           2.5109960E-03
   45        0.353770424           3.0251801E-03
   46        0.378525677           3.6314312E-03
   47        0.404471882           4.3441395E-03
   48        0.431645736           5.1796747E-03
   49        0.460085015           6.1566326E-03
   50        0.489828638           7.2961116E-03
   51        0.520916743           8.6220225E-03
   52        0.553390766           1.0161435E-02
   53        0.587293522           1.1944967E-02
   54        0.622669300           1.4007224E-02
   55        0.659563952           1.6387284E-02
   56        0.698025003           1.9129257E-02
   57        0.738101753           2.2282901E-02
   58        0.779845403           2.5904323E-02
   59        0.823309175           3.0056765E-02
   60        0.868548453           3.4811501E-02
   61        0.915620928           4.0248832E-02
   62        0.964586755           4.6459232E-02
   63        1.015508726           5.3544635E-02
   64        1.068452453           6.1619891E-02
   65        1.123486571           7.0814430E-02
   66        1.180682950           8.1274151E-02
   67        1.240116935           9.3163566E-02
   68        1.301867601           1.0666826E-01
   69        1.366018028           1.2199768E-01
   70        1.432655613           1.3938837E-01
   71        1.501872392           1.5910762E-01
   72        1.573765414           1.8145774E-01
   73        1.648437132           2.0678086E-01
   74        1.725995846           2.3546464E-01
   75        1.806556180           2.6794867E-01
   76        1.890239619           3.0473208E-01
   77        1.977175092           3.4638225E-01
   78        2.067499623           3.9354500E-01
   79        2.161359053           4.4695651E-01
   80        2.258908840           5.0745720E-01
   81        2.360314952           5.7600815E-01
   82        2.465754872           6.5371031E-01
   83        2.575418706           7.4182730E-01
   84        2.689510450           8.4181235E-01
   85        2.808249398           9.5534043E-01
   86        2.931871746           1.0843465E+00
   87        3.060632399           1.2310716E+00
   88        3.194807036           1.3981179E+00
   89        3.334694456           1.5885156E+00
   90        3.480619272           1.8058039E+00
   91        3.632934997           2.0541301E+00
   92        3.792027619           2.3383706E+00
   93        3.958319730           2.6642809E+00
   94        4.132275335           3.0386800E+00
   95        4.314405486           3.4696825E+00
   96        4.505274890           3.9669884E+00
   97        4.705509729           4.5422498E+00
   98        4.915806953           5.2095387E+00
   99        5.136945397           5.9859466E+00
  100        5.369799164           6.8923615E+00
  101        5.615353868           7.9544832E+00
  102        5.874726472           9.2041641E+00
  103        6.149189763           1.0681198E+01
  104        6.440202793           1.2435736E+01
  105        6.749449127           1.4531592E+01
  106        7.078885460           1.7050828E+01
  107        7.430804122           2.0100223E+01
  108        7.807914578           2.3820539E+01
  109        8.213451242           2.8400083E+01
  110        8.651318561           3.4094966E+01
  111        9.126289952           4.1260124E+01
  112        9.644286529           5.0398172E+01
  113       10.212777401           6.2238828E+01
  114       10.841371298           7.7872952E+01
  115       11.542720970           9.8988886E+01
  116       12.333962519           1.2831158E+02
  117       13.239120894           1.7047225E+02
  118       14.293382262           2.3387348E+02
  119       15.551296964           3.3512067E+02
  120       17.104252625           5.1110491E+02
  121       19.123569713           8.5911529E+02
  122       21.993869122           1.7188226E+03
  123       26.942445531           5.2012278E+03
     irreducible set of Lebedev Angular points ;
  0.009523809523810  1.000000000000000  0.000000000000000  0.000000000000000
  0.032142857142857  0.577350269189626  0.577350269189626  0.577350269189626
  0.028571428571429  0.459700843380983  0.000000000000000  0.888073833977115
   total no. of   reducible points:  38; test:  1.00000000
  0.012698412698413  1.000000000000000  0.000000000000000  0.000000000000000
  0.022574955908289  0.707106781186547  0.707106781186547  0.000000000000000
  0.021093750000000  0.577350269189626  0.577350269189626  0.577350269189626
  0.020173335537919  0.301511344577764  0.301511344577764  0.904534033733291
   total no. of   reducible points:  50; test:  1.00000000
  0.000513067179734  1.000000000000000  0.000000000000000  0.000000000000000
  0.016604069565742  0.707106781186547  0.707106781186547  0.000000000000000
 -0.029586038961039  0.577350269189626  0.577350269189626  0.577350269189626
  0.026576207082159  0.480384461415261  0.480384461415261  0.733799385705343
  0.016522170993716  0.320772648980776  0.000000000000000  0.947156221362588
   total no. of   reducible points:  74; test:  1.00000000
  0.011544011544012  1.000000000000000  0.000000000000000  0.000000000000000
  0.011943909085856  0.577350269189626  0.577350269189626  0.577350269189626
  0.011110555710603  0.369602846454150  0.369602846454150  0.852518311701268
  0.011876501294537  0.694354006602666  0.694354006602666  0.189063552885395
  0.011812303746904  0.374243039090341  0.000000000000000  0.927330657151172
   total no. of   reducible points:  86; test:  1.00000000
  0.003828270494937  1.000000000000000  0.000000000000000  0.000000000000000
  0.009793737512488  0.577350269189626  0.577350269189626  0.577350269189626
  0.008211737283191  0.185115635344736  0.185115635344736  0.965124035086594
  0.009942814891178  0.690421048382292  0.690421048382292  0.215957291845848
  0.009595471336071  0.395689473055942  0.395689473055942  0.828769981252592
  0.009694996361663  0.478369028812150  0.000000000000000  0.878158910604066
   total no. of   reducible points: 110; test:  1.00000000
  0.000599631368862  1.000000000000000  0.000000000000000  0.000000000000000
  0.007372999718621  0.707106781186547  0.707106781186547  0.000000000000000
  0.007210515360144  0.577350269189626  0.577350269189626  0.577350269189626
  0.007116355493118  0.676441040011426  0.676441040011426  0.291298882209527
  0.006753829486314  0.417496122796545  0.417496122796545  0.807089818359583
  0.007574394159054  0.157467667203908  0.157467667203908  0.974888643677173
  0.006991087353303  0.140355381171318  0.449332832326956  0.882270011260323
   total no. of   reducible points: 146; test:  1.00000000
  0.005544842902037  1.000000000000000  0.000000000000000  0.000000000000000
  0.006071332770671  0.707106781186547  0.707106781186547  0.000000000000000
  0.006383674773515  0.577350269189626  0.577350269189626  0.577350269189626
  0.005183387587748  0.255125262111413  0.255125262111413  0.932642590312691
  0.006317929009814  0.674360146036277  0.674360146036277  0.300793595137701
  0.006201670006589  0.431891069671941  0.431891069671941  0.791795559393492
  0.005477143385137  0.261393136033599  0.000000000000000  0.965232421976448
  0.005968383987681  0.499045316179604  0.144663074432512  0.854415804684659
   total no. of   reducible points: 170; test:  1.00000000
  0.001782340447245  1.000000000000000  0.000000000000000  0.000000000000000
  0.005716905949977  0.707106781186547  0.707106781186547  0.000000000000000
  0.005573383178849  0.577350269189626  0.577350269189626  0.577350269189626
  0.005608704082588  0.671297344269523  0.671297344269523  0.314196994182586
  0.005158237711805  0.289246562757544  0.289246562757544  0.912509096867474
  0.005518771467274  0.444693317871744  0.444693317871744  0.777493219314767
  0.004106777028169  0.129933544765007  0.129933544765007  0.982972302707253
  0.005051846064615  0.345770219761128  0.000000000000000  0.938319218137592
  0.005530248916233  0.159041710538353  0.836036015482459  0.525118572443642
   total no. of   reducible points: 194; test:  1.00000000
 -0.055226399197273  1.000000000000000  0.000000000000000  0.000000000000000
  0.004450274607445  0.577350269189626  0.577350269189626  0.577350269189626
  0.004496841067921  0.449204468739761  0.449204468739761  0.772289253148364
  0.005049153450479  0.252041949021020  0.252041949021020  0.934317778845812
  0.003976408018052  0.698190665844724  0.698190665844724  0.158302205463478
  0.004401400650381  0.658740524346096  0.658740524346096  0.363485684956727
  0.017245443505444  0.040385440500977  0.040385440500977  0.998367683967727
  0.004231083095357  0.582384230971558  0.000000000000000  0.812913653173365
  0.005198069864064  0.354587739051869  0.000000000000000  0.935022745880593
  0.004695720972569  0.227218180899819  0.486466153588665  0.843636521068894
   total no. of   reducible points: 230; test:  1.00000000
 -0.001313769127327  1.000000000000000  0.000000000000000  0.000000000000000
 -0.002522728704859  0.707106781186547  0.707106781186547  0.000000000000000
  0.004186853881701  0.577350269189626  0.577350269189626  0.577350269189626
  0.005315167977811  0.703937339158548  0.703937339158548  0.094575076403713
  0.004047142377086  0.101252624857241  0.101252624857241  0.989694807462905
  0.004112482394407  0.464744872642054  0.464744872642054  0.753673939250816
  0.003595584899759  0.327742065497163  0.327742065497163  0.886098344997499
  0.004256131351428  0.662033866369997  0.662033866369997  0.351315128564633
  0.004229582700647  0.850650808352040  0.000000000000000  0.525731112119134
  0.004080914225781  0.323348454269290  0.115311201100970  0.939227929749916
  0.004071467593831  0.231479015871260  0.524493924092236  0.819343388819120
   total no. of   reducible points: 266; test:  1.00000000
  0.000854591172513  1.000000000000000  0.000000000000000  0.000000000000000
  0.003599119285026  0.577350269189626  0.577350269189626  0.577350269189626
  0.003449788424306  0.351564034557011  0.351564034557011  0.867643624544083
  0.003604822601420  0.656632941021961  0.656632941021961  0.371034178384821
  0.003576729661743  0.472905413258100  0.472905413258100  0.743452042987556
  0.002352101413689  0.096183085226148  0.096183085226148  0.990705621379408
  0.003108953122414  0.221964523629418  0.221964523629418  0.949454317226443
  0.003650045807677  0.701176641608955  0.701176641608955  0.129238672710514
  0.002982344963172  0.264415288706066  0.000000000000000  0.964408914879206
  0.003600820932216  0.571895589187896  0.000000000000000  0.820326419827759
  0.003571540554273  0.251003475177047  0.800072749407395  0.544867737258077
  0.003392312205006  0.123354853258333  0.412772408316853  0.902442529533000
   total no. of   reducible points: 302; test:  1.00000000
  0.003006796749454  1.000000000000000  0.000000000000000  0.000000000000000
  0.003050627745651  0.577350269189626  0.577350269189626  0.577350269189626
  0.001621104600289  0.706896546391232  0.706896546391232  0.024383301669356
  0.003005701484902  0.479468262571203  0.479468262571203  0.734996850587746
  0.002990992529654  0.192753315487802  0.192753315487802  0.962129055136014
  0.002982170644108  0.693035796132712  0.693035796132712  0.198501311223365
  0.002721564237311  0.360830211552009  0.360830211552009  0.860001812127547
  0.003033513795811  0.649848616149617  0.649848616149617  0.394199888605839
  0.003007949555219  0.193294501323034  0.000000000000000  0.981140782843257
  0.002881964603055  0.380049491989930  0.000000000000000  0.924966152698679
  0.002958357626536  0.289955882549957  0.793453785658232  0.535123047718276
  0.003036020026407  0.096841214551040  0.828080150668686  0.552182074349399
  0.002832187403926  0.183343464704166  0.907465826530513  0.378009189874487
   total no. of   reducible points: 350; test:  1.00000000
  0.000526589796822  1.000000000000000  0.000000000000000  0.000000000000000
  0.002548219972003  0.707106781186547  0.707106781186547  0.000000000000000
  0.002512317418927  0.577350269189626  0.577350269189626  0.577350269189626
  0.002530403801186  0.690934630750911  0.690934630750911  0.212646824707552
  0.002014279020919  0.177483605460916  0.177483605460916  0.967987158791473
  0.002501725168403  0.491434263778475  0.491434263778475  0.719016501040843
  0.002513267174598  0.645666470742426  0.645666470742426  0.407712664897770
  0.002302694782227  0.286128901030764  0.286128901030764  0.914472801120872
  0.001462495621595  0.075680843671780  0.075680843671780  0.994255912631278
  0.002445373437313  0.392725976336800  0.392725976336800  0.831584400419232
  0.002417442375639  0.881813287779429  0.000000000000000  0.471598691151316
  0.001910951282180  0.977642811118265  0.000000000000000  0.210272522857307
  0.002416930044325  0.205482369640304  0.868946032287241  0.450233038258263
  0.002512236854563  0.590515704892527  0.799927854385729  0.106801826075805
  0.002496644054553  0.555015236107681  0.771746262691590  0.310428403516654
  0.002236607760438  0.937180985855372  0.334436314534346  0.099217696364292
   total no. of   reducible points: 434; test:  1.00000000
  0.000309512129531  1.000000000000000  0.000000000000000  0.000000000000000
  0.001852379698597  0.577350269189626  0.577350269189626  0.577350269189626
  0.001871790639278  0.704095493822747  0.704095493822747  0.092190407076898
  0.001858812585438  0.680774406645524  0.680774406645524  0.270356088359165
  0.001852028828296  0.637254693925875  0.637254693925875  0.433373868777154
  0.001846715956151  0.504441970780036  0.504441970780036  0.700768575373573
  0.001818471778163  0.421576178401097  0.421576178401097  0.802836877335274
  0.001749564657281  0.331792073647212  0.331792073647212  0.883078727934133
  0.001617210647254  0.238473670142189  0.238473670142189  0.941414158220403
  0.001384737234852  0.145903644915776  0.145903644915776  0.978480583762694
  0.000976433116505  0.060950341155072  0.060950341155072  0.996278129754016
  0.001857161196774  0.611684344200988  0.000000000000000  0.791101929626902
  0.001705153996396  0.396475534819986  0.000000000000000  0.918045287711454
  0.001300321685886  0.172478200990772  0.000000000000000  0.985013335028002
  0.001842866472905  0.561026380862206  0.351828092773352  0.749310611904116
  0.001802658934377  0.474239284255198  0.263471665593795  0.840047488359050
  0.001849830560444  0.598412649788538  0.181664084036021  0.780320742479920
  0.001713904507107  0.379103540769556  0.172079522565688  0.909213475092374
  0.001555213603397  0.277867319058624  0.082130215819325  0.957102074310073
  0.001802239128009  0.503356427107512  0.089992058420749  0.859379855890721
   total no. of   reducible points: 590; test:  1.00000000
  0.000219294208818  1.000000000000000  0.000000000000000  0.000000000000000
  0.001436433617319  0.707106781186547  0.707106781186547  0.000000000000000
  0.001421940344336  0.577350269189626  0.577350269189626  0.577350269189626
  0.000679812351105  0.050872044105024  0.050872044105024  0.997408677652823
  0.000991318423529  0.122819879017883  0.122819879017883  0.984799753572301
  0.001180207833239  0.202689081440879  0.202689081440879  0.958036675983391
  0.001296599602081  0.284774515646429  0.284774515646429  0.915317950483155
  0.001365871427428  0.365671907897803  0.365671907897803  0.855901928697887
  0.001402988604775  0.442826488671347  0.442826488671347  0.779621319527635
  0.001418645563596  0.514061962724974  0.514061962724974  0.686644447264154
  0.001421376741852  0.630640121916680  0.630640121916680  0.452311920313658
  0.001423996475491  0.671688333202261  0.671688333202261  0.312521305001653
  0.001431554042179  0.697979268533688  0.697979268533688  0.160155803498829
  0.000925440149987  0.144686567419531  0.000000000000000  0.989477537495599
  0.001250239995054  0.339026347541122  0.000000000000000  0.940776878793759
  0.001394365843329  0.533580465126351  0.000000000000000  0.845749305193653
  0.001127089094672  0.069440243933494  0.235518789424233  0.969385863498432
  0.001345753760911  0.226900410952946  0.410218247404573  0.883310360522113
  0.001424957283317  0.080255746077753  0.621430241748161  0.779348105702661
  0.001261523341238  0.146799952789657  0.324528434571739  0.934414827052402
  0.001392547106053  0.157150776982473  0.522448218969663  0.838064133458312
  0.001418761677878  0.236570299315725  0.601754663408956  0.762840624604670
  0.001338366684480  0.077148158667657  0.434657551614116  0.897285336132833
  0.001393700862676  0.306293666621073  0.490882658903762  0.815609223203975
  0.001415914757467  0.382247737952479  0.564876814909950  0.731300793659766
   total no. of   reducible points: 770; test:  1.00000000
  qrot: 

              1        2        3      
    1    1.0000   0.0000   0.0000
    2    0.0000   1.0000   0.0000
    3    0.0000   0.0000   1.0000
  me                     0   done genpts
  me                     1   done genpts
  me                     2   done genpts
  me                     3   done genpts
  me                     4   done genpts
  me                     5   done genpts
  me                     7   done genpts
  me                     6   done genpts
  me                     0   done uprt
  me                     1   done uprt
  me                     2   done uprt
  me                     3   done uprt
  me                     4   done uprt
  me                     5   done uprt
  me                     6   done uprt
  me                     7   done uprt
  me                     0  done mem
  me                     1  done mem
  me                     2  done mem
  me                     3  done mem
  me                     4  done mem
  me                     5  done mem
  me                     6  done mem
  me                     7  done mem
  dftinpanae: itol2e                     8  iaoacc                    14  tol_rho    1.0000000000000000E-010

            General Information
            -------------------
          SCF calculation type: DFT
          Wavefunction type:  spin polarized.
          No. of atoms     :     1
          No. of electrons :    13
           Alpha electrons :     7
            Beta electrons :     6
          Charge           :     0
          Spin multiplicity:     2
          Use of symmetry is: off; symmetry adaption is: off
          Maximum number of iterations:  50
          AO basis - number of functions:    59
                     number of shells:    16
          Convergence on energy requested:  1.00D-06
          Convergence on density requested:  1.00D-05
          Convergence on gradient requested:  5.00D-04

              XC Information
              --------------
                     Hartree-Fock (Exact) Exchange  1.000          
                     LC-wPBE(h)Exchange Functional  1.000          
            Perdew 1991 LDA Correlation Functional  1.000 local    
           PerdewBurkeErnz. Correlation Functional  1.000 non-local

           Range-Separation Parameters        
           ---------------------------
           Alpha           :  0.00
           Beta            :  1.00
           Gamma           :  0.28
           Short-Range HF  :     F

             Grid Information
             ----------------
          Grid used for XC integration:  fine      
          Radial quadrature: Mura-Knowles        
          Angular quadrature: Lebedev. 
          Tag              B.-S. Rad. Rad. Pts. Rad. Cut. Ang. Pts.
          ---              ---------- --------- --------- ---------
          Al                  1.25      123          14.0       770
          Grid pruning is: on 
          Number of quadrature shells:   123
          Spatial weights used:  Erf1

          Convergence Information
          -----------------------
          Convergence aids based upon iterative change in 
          total energy or number of iterations. 
          Levelshifting, if invoked, occurs when the 
          HOMO/LUMO gap drops below (HL_TOL):  1.00D-02
          DIIS, if invoked, will attempt to extrapolate 
          using up to (NFOCK): 10 stored Fock matrices.

                    Damping( 0%)  Levelshifting(0.5)       DIIS
                  --------------- ------------------- ---------------
          dE  on:    start            ASAP                start   
          dE off:    2 iters         50 iters            50 iters 


      Screening Tolerance Information
      -------------------------------
          Density screening/tol_rho:  1.00D-10
          AO Gaussian exp screening on grid/accAOfunc:  14
          CD Gaussian exp screening on grid/accCDfunc:  20
          XC Gaussian exp screening on grid/accXCfunc:  20
          Schwarz screening/accCoul:  1.00D-08



                         Geometry "geometry" -> "geometry"
                         ---------------------------------

 Output coordinates in angstroms (scale by  1.889725989 to convert to a.u.)

  No.       Tag          Charge          X              Y              Z
 ---- ---------------- ---------- -------------- -------------- --------------
    1 Al                  13.0000     0.00000000     0.00000000     0.00000000

      Atomic Mass 
      ----------- 

      Al                26.981540


 Effective nuclear repulsion energy (a.u.)       0.0000000000

            Nuclear Dipole moment (a.u.) 
            ----------------------------
        X                 Y               Z
 ---------------- ---------------- ----------------
     0.0000000000     0.0000000000     0.0000000000

  
  CAM type calculations without CDFIT are
  only available with the direct option.
  Forcing Direct SCF
  


     <<<<<<    Before call to DFT_SCF.    >>>>>>
     <<<<<< date:  May  8  time: 11:44:53 >>>>>>


 Setting tolerance for linear dependence to 1.00D-05



 Setting tolerance for linear dependence to 1.00D-05


 Setting tolerance for linear dependence to 1.00D-05

 Setting tolerance for linear dependence to 1.00D-05

 Setting tolerance for linear dependence to 1.00D-05
 Setting tolerance for linear dependence to 1.00D-05
 Setting tolerance for linear dependence to 1.00D-05
 Setting tolerance for linear dependence to 1.00D-05
  lindep tolerance =    1.0000000000000001E-005
  lindep tolerance =    1.0000000000000001E-005
  lindep tolerance =    1.0000000000000001E-005
  lindep tolerance =    1.0000000000000001E-005
  lindep tolerance =    1.0000000000000001E-005
  lindep tolerance =    1.0000000000000001E-005
  lindep tolerance =    1.0000000000000001E-005
  lindep tolerance =    1.0000000000000001E-005


     <<<<<<    Before 3c-2e initialize.   >>>>>>
     <<<<<< date:  May  8  time: 11:44:53 >>>>>>


 Setting fock-build task_bf   :      -1
                    maxquartet:   10000
                    maxeri    :  129600
                    maxscr    :       0
                    intacc    : 0.0D+00
                    denscreen : T
                    dentol    : 1.0D-06


      Superposition of Atomic Density Guess
      -------------------------------------

 Sum of atomic energies:        -241.87958821

      Non-variational initial energy
      ------------------------------

 Total energy =    -241.768942
 1-e energy   =    -336.632475
 2-e energy   =      94.863533
 HOMO         =      -0.010529
 LUMO         =      -0.010529


 Setting fock-build task_bf   :      -1
                    maxquartet:   10000
                    maxeri    :  129600
                    maxscr    :       0
                    intacc    : 0.0D+00
                    denscreen : T
                    dentol    : 1.0D-06


 Wrote molecular orbitals to ./al.movecs

  WARNING: movecs_in_org=atomic not equal to movecs_in=./al.movecs
   Time after variat. SCF:      1.1

 Setting fock-build task_bf   :      -1
                    maxquartet:   10000
                    maxeri    :  129600
                    maxscr    :       0
                    intacc    : 0.0D+00
                    denscreen : T
                    dentol    : 1.0D-06

   Time prior to 1st pass:      1.1


     <<<<<<      Before SCF iter loop.    >>>>>>
     <<<<<< date:  May  8  time: 11:44:54 >>>>>>

           DAMPING=T LEVELSHIFTING=F DIISING=T
          itol2e= 8 iAOacc=12 iXCacc=20


     <<<<<<            calling 1-e int    >>>>>>
     <<<<<< date:  May  8  time: 11:44:54 >>>>>>

    Kinetic Matrix Time:          0.0s

           Kinetic energy =    241.623243623846

    Potential Matrix Time:          0.0s


     <<<<<<    Before call to GETVXC.     >>>>>>
     <<<<<< date:  May  8  time: 11:44:54 >>>>>>



     <<<<<<    Before call to fock_2e.    >>>>>>
     <<<<<< date:  May  8  time: 11:44:54 >>>>>>



     <<<<<<     After call to fock_2e.    >>>>>>
     <<<<<< date:  May  8  time: 11:44:54 >>>>>>

    Fock_2e Build Time:          0.2s
  *** grid_quadv0:                    calc_type:                    1
  *** grid_quadv0:                    grid_written: F
  *** grid_quadv0:                    grad: T
  *** grid_quadv0:                    kske: F
  *** grid_quadv0:                    calc_type:                    1
  *** grid_quadv0:                    grid_written: F
  *** grid_quadv0:                    grad: T
  *** grid_quadv0:                    kske: F
  *** grid_quadv0:                    kslap: F
  *** grid_quadv0:                    do_scf: T
  *** grid_quadv0:                    fde_option:                    0
  *** grid_quadv0:                    n_per_rec:                 3070
  *** grid_quadv0:                    calc_type:                    1
  *** grid_quadv0:                    grid_written: F
  *** grid_quadv0:                    grad: T
  *** grid_quadv0:                    kske: F
  *** grid_quadv0:                    kslap: F
  *** grid_quadv0:                    do_scf: T
  *** grid_quadv0:                    kslap: F
  *** grid_quadv0:                    do_scf: T
  *** grid_quadv0:                    fde_option:                    0
  *** grid_quadv0:                    n_per_rec:                 3070
  *** grid_quadv0:                    calc_type:                    1
  *** grid_quadv0:                    grid_written: F
  *** grid_quadv0:                    grad: T
  *** grid_quadv0:                    kske: F
  *** grid_quadv0:                    kslap: F
  *** grid_quadv0:                    do_scf: T
  *** grid_quadv0:                    fde_option:                    0
  *** grid_quadv0:                    n_per_rec:                 3070
  *** grid_quadv0:                    calc_type:                    1
  *** grid_quadv0:                    grid_written: F
  *** grid_quadv0:                    grad: T
  *** grid_quadv0:                    kske: F
  *** grid_quadv0:                    kslap: F
  *** grid_quadv0:                    do_scf: T
  *** grid_quadv0:                    fde_option:                    0
  *** grid_quadv0:                    n_per_rec:                 3070
  *** grid_quadv0:                    calc_type:                    1
  *** grid_quadv0:                    grid_written: F
  *** grid_quadv0:                    grad: T
  *** grid_quadv0:                    kske: F
  *** grid_quadv0:                    kslap: F
  *** grid_quadv0:                    do_scf: T
  *** grid_quadv0:                    fde_option:                    0
  *** grid_quadv0:                    n_per_rec:                 3070
  *** grid_quadv0:                    calc_type:                    1
  *** grid_quadv0:                    grid_written: F
  *** grid_quadv0:                    grad: T
  *** grid_quadv0:                    kske: F
  *** grid_quadv0:                    kslap: F
  *** grid_quadv0:                    do_scf: T
  *** grid_quadv0:                    fde_option:                    0
  *** grid_quadv0:                    n_per_rec:                 3070
  *** grid_quadv0:                    calc_type:                    1
  *** grid_quadv0:                    grid_written: F
  *** grid_quadv0:                    grad: T
  *** grid_quadv0:                    kske: F
  *** grid_quadv0:                    kslap: F
  *** grid_quadv0:                    do_scf: T
  *** grid_quadv0:                    fde_option:                    0
  *** grid_quadv0:                    n_per_rec:                 3070
  *** grid_quadv0:                    fde_option:                    0
  *** grid_quadv0:                    n_per_rec:                 3070
   1: nuse=   8 avail= 12500000Mb on .
   3: nuse=   8 avail= 12500000Mb on .
   4: nuse=   8 avail= 12500000Mb on .
   0: nuse=   8 avail= 12500000Mb on .
   2: nuse=   8 avail= 12500000Mb on .
   5: nuse=   8 avail= 12500000Mb on .
   6: nuse=   8 avail= 12500000Mb on .
   7: nuse=   8 avail= 12500000Mb on .
 l_cube input   11.00

  atom type   l_cube   no. cubes   segmts   rad   sub
 ----------- -------- ----------- -------- ----- -----
        1     10.80       124         5      27     8

 Grid_pts file          = ./al.gridpts.0
 Record size in doubles =  12289        No. of grid_pts per rec  =   3070
 Max. records in memory =      6        Max. recs in file   = 126656358

 me   0 NQTOTC NQ/cube    8663     137
 me   1 NQTOTC NQ/cube    5253     375
 me   2 NQTOTC NQ/cube    4735     430
 me   3 NQTOTC NQ/cube    6659    1331
 me   4 NQTOTC NQ/cube    4959     708
 me   5 NQTOTC NQ/cube    5378     448
 me   6 NQTOTC NQ/cube    4444     634
 me   7 NQTOTC NQ/cube    5191    1038

 XC quadr. integrated density :      13.000000 npts:    45086 nctrs:        1

    Fock_xc Build Time:          0.1s


     <<<<<<    Before call to GETVCOUL.   >>>>>>
     <<<<<< date:  May  8  time: 11:44:54 >>>>>>



     <<<<<<    End of parallel region.    >>>>>>
     <<<<<< date:  May  8  time: 11:44:54 >>>>>>

    Total Fock Matrix Build Time:          0.3s
 Etnew, Ecore, Ecoul, Exc(1), Exc(2), Totsic:   -242.21286720827010       -335.66637904599577        111.81685514273317       -18.363343305007518        0.0000000000000000        0.0000000000000000     
  delta =   -242.21286720827010     
  delta =   -242.21286720827010     
  delta =   -242.21286720827010     
  delta =   -242.21286720827010     


         Total DFT energy =     -242.212867208270
      One electron energy =     -335.666379045996
           Coulomb energy =      111.816855142733
  delta =   -242.21286720827010     
  delta =   -242.21286720827010     
  delta =   -242.21286720827010     
    Exchange-Corr. energy =      -18.363343305008
 Nuclear repulsion energy =        0.000000000000

 Numeric. integr. density =       12.999999985968

     Total iterative time =      2.2s




     <<<<<<        calling diis driver    >>>>>>
     <<<<<< date:  May  8  time: 11:44:54 >>>>>>

  delta =   -242.21286720827010     
 nhist                     1  pulay matrix 
   0.0000E+00
  -1.0000E+00   6.0626E-02


     <<<<<<         called diis driver    >>>>>>
     <<<<<< date:  May  8  time: 11:44:54 >>>>>>


 global array: fock transf[1:59,1:59],  handle: -940 

            1           2           3           4           5           6  
       ----------- ----------- ----------- ----------- ----------- -----------
   1       1.32797     0.00000    -0.00000    -0.00000    -0.72267    -0.46258
   2       0.00000     0.38174     0.00077    -0.00074    -0.00000    -0.00000
   3      -0.00000     0.00077     0.38299    -0.00155    -0.00000    -0.00000
   4      -0.00000    -0.00074    -0.00155     0.38285     0.00000    -0.00000
   5      -0.72267    -0.00000    -0.00000     0.00000     1.35915     1.05390
   6      -0.46258    -0.00000    -0.00000    -0.00000     1.05390     1.08524
   7      -0.00000     0.07325     0.05636     0.00750    -0.00000     0.00000
   8       0.00000    -0.03698     0.03802     0.07609     0.00000    -0.00000
   9      -0.00000     0.04325    -0.06305     0.05246    -0.00000     0.00000
  10       0.00000     0.00001     0.00003     0.00001     0.00000    -0.00000
  11      -0.31358    -0.00000    -0.00000    -0.00000     0.06783     0.31597
  12      -0.00000    -0.00014     0.00007     0.00000     0.00000    -0.00000
  13      -0.00000    -0.00013    -0.00009    -0.00016     0.00000    -0.00000
  14       0.00000    -0.00010     0.00014     0.00010     0.00000    -0.00000
  15      -0.00004    -0.00000     0.00000    -0.00000    -0.00040    -0.00037
  16      -0.00003    -0.00000     0.00000    -0.00000    -0.00036    -0.00033
  17      -0.00005    -0.00000     0.00000    -0.00000    -0.00059    -0.00055
  18       0.00000     0.01635     0.00468     0.01028     0.00000    -0.00000
  19      -0.00000    -0.00656    -0.01073     0.01529    -0.00000    -0.00000
  20       0.00000     0.00919    -0.01601    -0.00728     0.00000    -0.00000
  21       0.00000     0.00004     0.00008    -0.00010     0.00000     0.00000
  22      -0.00000     0.00000    -0.00000    -0.00000    -0.00005    -0.00005
  23      -0.00000     0.00000    -0.00000     0.00000    -0.00004    -0.00004
  24       0.00000     0.00007    -0.00011    -0.00006    -0.00000     0.00000
  25       0.00000     0.00008     0.00009     0.00009    -0.00000     0.00000
  26      -0.00000    -0.00012     0.00004    -0.00002     0.00000    -0.00000
  27       0.00019    -0.00000     0.00000    -0.00000     0.00059     0.00013
  28      -0.00016     0.00000    -0.00000    -0.00000    -0.00050    -0.00011
  29       0.00007    -0.00000     0.00000     0.00000     0.00023     0.00005
  30       0.00000     0.01728     0.01113     0.00115     0.00000    -0.00000
  31      -0.00000    -0.00984     0.01414     0.01150    -0.00000     0.00000
  32       0.00000     0.00574    -0.00990     0.01696     0.00000    -0.00000
  33      -0.00000    -0.04617     0.07228    -0.00745    -0.00000     0.00000
  34      -0.00000    -0.01440    -0.00077     0.08503    -0.00000    -0.00000
  35      -0.00000    -0.07116    -0.04698    -0.01212    -0.00000     0.00000
  36      -0.02893    -0.00000     0.00000     0.00000     0.05123     0.17402
  37      -0.00000     0.02734    -0.01597    -0.00635    -0.00000     0.00000
  38       0.00000     0.01712     0.02443     0.01228    -0.00000     0.00000
  39       0.00000     0.00115     0.01361    -0.02908     0.00000    -0.00000
  40       0.00001     0.00000    -0.00000    -0.00000     0.00003     0.00001
  41       0.00002     0.00000    -0.00000    -0.00000     0.00006     0.00001
  42      -0.00003    -0.00000     0.00000     0.00000    -0.00001    -0.00034
  43      -0.00002     0.00000    -0.00000     0.00000    -0.00001    -0.00026
  44      -0.00004     0.00000    -0.00000    -0.00000    -0.00001    -0.00046
  45       0.00388    -0.00000    -0.00000    -0.00000     0.06371     0.09861
  46      -0.00000    -0.02176    -0.01503    -0.00292    -0.00000    -0.00000
  47       0.00000    -0.00707     0.01451    -0.02119     0.00000     0.00000
  48      -0.00000    -0.01353     0.01650     0.01584     0.00000     0.00000
  49       0.00000     0.00000    -0.00000    -0.00000     0.00000     0.00004
  50       0.00000    -0.00000     0.00000    -0.00000     0.00000     0.00003
  51      -0.01677     0.00000     0.00000     0.00000    -0.04360    -0.08323
  52       0.00000     0.00562    -0.00826     0.00258    -0.00000     0.00000
  53      -0.00000    -0.00040    -0.00318    -0.00978     0.00000     0.00000
  54      -0.00000     0.00859     0.00541    -0.00228    -0.00000     0.00000
  55      -0.03750    -0.00000    -0.00000     0.00000     0.06849     0.07855
  56       0.00000    -0.00278     0.00626    -0.00747     0.00000     0.00000
  57      -0.00000    -0.00808    -0.00532     0.00304    -0.00000    -0.00000
  58      -0.00000    -0.00184     0.00575     0.00571     0.00000     0.00000
  59       0.02472     0.00000     0.00000     0.00000    -0.02515    -0.04008

            7           8           9          10          11          12  
       ----------- ----------- ----------- ----------- ----------- -----------
   1      -0.00000     0.00000    -0.00000     0.00000    -0.31358    -0.00000
   2       0.07325    -0.03698     0.04325     0.00001    -0.00000    -0.00014
   3       0.05636     0.03802    -0.06305     0.00003    -0.00000     0.00007
   4       0.00750     0.07609     0.05246     0.00001    -0.00000     0.00000
   5      -0.00000     0.00000    -0.00000     0.00000     0.06783     0.00000
   6       0.00000    -0.00000     0.00000    -0.00000     0.31597    -0.00000
   7       2.72457    -0.00041    -0.00071     0.00025    -0.00000    -0.00008
   8      -0.00041     2.72415     0.00045    -0.00015     0.00000     0.00009
   9      -0.00071     0.00045     2.72471    -0.00028     0.00000    -0.00012
  10       0.00025    -0.00015    -0.00028     0.74788    -0.00000    -0.00000
  11      -0.00000     0.00000     0.00000    -0.00000     1.81250     0.00000
  12      -0.00008     0.00009    -0.00012    -0.00000     0.00000     0.74708
  13      -0.00016    -0.00012    -0.00013     0.00006     0.00000     0.00034
  14      -0.00001     0.00018    -0.00008    -0.00004     0.00000     0.00070
  15       0.00000    -0.00000    -0.00000     0.00000    -0.00038    -0.00000
  16       0.00000     0.00000    -0.00000    -0.00000    -0.00034    -0.00000
  17      -0.00000    -0.00000    -0.00000     0.00000    -0.00056    -0.00000
  18      -0.29750    -0.06885    -0.18361     0.00006     0.00000    -0.00029
  19       0.18833    -0.19416    -0.23224    -0.00169    -0.00000     0.00003
  20       0.05523     0.29080    -0.19844    -0.00017    -0.00000    -0.00025
  21      -0.00030     0.00001     0.00023    -0.27523     0.00000    -0.00001
  22      -0.00000     0.00000    -0.00000     0.00000    -0.00005    -0.00000
  23       0.00000    -0.00000    -0.00000     0.00000    -0.00004     0.00000
  24      -0.00006    -0.00100     0.00047    -0.00003    -0.00000     0.00091
  25       0.00083     0.00071     0.00040     0.00004    -0.00000     0.05284
  26      -0.00057     0.00036    -0.00073    -0.00000     0.00000     0.26985
  27      -0.00000    -0.00000    -0.00000     0.00000    -0.00022     0.00000
  28      -0.00000    -0.00000     0.00000    -0.00000     0.00018    -0.00000
  29      -0.00000    -0.00000    -0.00000    -0.00000    -0.00008     0.00000
  30      -0.52179     0.03784    -0.02344     0.00087     0.00000    -0.00013
  31      -0.04383    -0.48437     0.19346    -0.00016    -0.00000     0.00010
  32       0.00889    -0.19525    -0.48622    -0.00122    -0.00000    -0.00010
  33      -0.04943    -0.30523     0.54416     0.00015    -0.00000    -0.00028
  34       0.03552    -0.54621    -0.30403    -0.00017    -0.00000    -0.00002
  35       0.62314     0.00635     0.05961    -0.00019    -0.00000    -0.00019
  36       0.00000     0.00000    -0.00000    -0.00000     0.00883    -0.00000
  37       0.15425    -0.30713     0.27076     0.00005    -0.00000    -0.00010
  38       0.39907     0.17873    -0.02427     0.00019    -0.00000    -0.00003
  39       0.09551    -0.25570    -0.34412     0.00047    -0.00000     0.00002
  40      -0.00000     0.00000     0.00000     0.00000    -0.00001     0.00000
  41      -0.00000    -0.00000     0.00000    -0.00000    -0.00002    -0.00000
  42      -0.00000    -0.00000     0.00000    -0.00000    -0.00021     0.00000
  43       0.00000     0.00000     0.00000    -0.00000    -0.00016    -0.00000
  44       0.00000     0.00000     0.00000    -0.00000    -0.00028    -0.00000
  45       0.00000    -0.00000    -0.00000     0.00000    -0.93231     0.00000
  46      -0.00708     0.00007    -0.00037    -0.00065     0.00000    -0.00010
  47       0.00045    -0.00235    -0.00674     0.00093     0.00000    -0.00013
  48       0.00016     0.00670    -0.00226    -0.00017     0.00000    -0.00016
  49      -0.00000    -0.00000    -0.00000     0.00000     0.00003    -0.00000
  50      -0.00000    -0.00000     0.00000     0.00000     0.00002    -0.00000
  51      -0.00000    -0.00000     0.00000     0.00000     0.48180     0.00000
  52      -0.01141    -0.13178     0.35638    -0.00020     0.00000     0.00010
  53      -0.11415    -0.33829    -0.12972     0.00017     0.00000     0.00001
  54       0.36267    -0.11174    -0.03160     0.00029    -0.00000     0.00006
  55       0.00000     0.00000    -0.00000     0.00000    -0.07739     0.00000
  56       0.00183     0.01395     0.06915    -0.00130     0.00000     0.00061
  57       0.06676    -0.02274    -0.00181     0.00121    -0.00000     0.00055
  58      -0.02107    -0.06362     0.01314     0.00021     0.00000     0.00048
  59       0.00000    -0.00000     0.00000    -0.00000    -0.01556    -0.00000

           13          14          15          16          17          18  
       ----------- ----------- ----------- ----------- ----------- -----------
   1      -0.00000     0.00000    -0.00004    -0.00003    -0.00005     0.00000
   2      -0.00013    -0.00010    -0.00000    -0.00000    -0.00000     0.01635
   3      -0.00009     0.00014     0.00000     0.00000     0.00000     0.00468
   4      -0.00016     0.00010    -0.00000    -0.00000    -0.00000     0.01028
   5       0.00000     0.00000    -0.00040    -0.00036    -0.00059     0.00000
   6      -0.00000    -0.00000    -0.00037    -0.00033    -0.00055    -0.00000
   7      -0.00016    -0.00001     0.00000     0.00000    -0.00000    -0.29750
   8      -0.00012     0.00018    -0.00000     0.00000    -0.00000    -0.06885
   9      -0.00013    -0.00008    -0.00000    -0.00000    -0.00000    -0.18361
  10       0.00006    -0.00004     0.00000    -0.00000     0.00000     0.00006
  11       0.00000     0.00000    -0.00038    -0.00034    -0.00056     0.00000
  12       0.00034     0.00070    -0.00000    -0.00000    -0.00000    -0.00029
  13       0.74779    -0.00042     0.00000     0.00000    -0.00000    -0.00050
  14      -0.00042     0.74750    -0.00000     0.00000     0.00000    -0.00009
  15       0.00000    -0.00000     0.58900     0.00051     0.00084     0.00000
  16       0.00000     0.00000     0.00051     0.58891     0.00072     0.00000
  17      -0.00000     0.00000     0.00084     0.00072     0.58964     0.00000
  18      -0.00050    -0.00009     0.00000     0.00000     0.00000     0.80279
  19      -0.00014     0.00012     0.00000     0.00000     0.00000    -0.00007
  20       0.00003    -0.00035     0.00000     0.00000    -0.00000     0.00006
  21       0.00004    -0.00003    -0.00000    -0.00000     0.00000    -0.00004
  22       0.00000    -0.00000     0.00000    -0.00005     0.00024    -0.00000
  23      -0.00000    -0.00000    -0.00009     0.00017     0.00013     0.00000
  24       0.00271    -0.27548     0.00000    -0.00000     0.00000     0.00010
  25      -0.27057    -0.00101    -0.00000    -0.00000    -0.00000     0.00025
  26       0.05402     0.00312    -0.00000    -0.00000    -0.00000    -0.00021
  27       0.00000     0.00000     0.25370     0.08333     0.04590    -0.00000
  28       0.00000    -0.00000     0.04104     0.02116    -0.26692    -0.00000
  29       0.00000    -0.00000    -0.08553     0.25685     0.00728     0.00000
  30      -0.00020    -0.00010    -0.00000     0.00000     0.00000     0.30095
  31      -0.00001     0.00019    -0.00000    -0.00000     0.00000     0.02073
  32      -0.00023    -0.00003     0.00000     0.00000     0.00000     0.19190
  33      -0.00002    -0.00038    -0.00000     0.00000     0.00000    -0.00042
  34       0.00014    -0.00011    -0.00000     0.00000     0.00000     0.00062
  35      -0.00048     0.00002     0.00000     0.00000    -0.00000    -0.00155
  36      -0.00000     0.00000     0.00022     0.00019     0.00032    -0.00000
  37      -0.00007    -0.00011    -0.00000     0.00000    -0.00000    -0.03280
  38      -0.00012     0.00002    -0.00000    -0.00000     0.00000    -0.05579
  39       0.00007    -0.00001     0.00000     0.00000     0.00000     0.02311
  40       0.00000     0.00000     0.00001    -0.00013     0.00010     0.00000
  41       0.00000    -0.00000    -0.00014     0.00006     0.00010    -0.00000
  42      -0.00000    -0.00000    -0.04583     0.00096    -0.00346     0.00000
  43      -0.00000    -0.00000     0.00309     0.02054    -0.04078     0.00000
  44       0.00000     0.00000    -0.00000    -0.04078    -0.02189     0.00000
  45       0.00000    -0.00000    -0.00005    -0.00004    -0.00007     0.00000
  46      -0.00036     0.00008     0.00000     0.00000     0.00000     0.00925
  47      -0.00002    -0.00015     0.00000     0.00000    -0.00000     0.00535
  48       0.00008    -0.00026    -0.00000    -0.00000    -0.00000    -0.00036
  49       0.00000    -0.00000     0.00149    -0.00070    -0.00056     0.00000
  50       0.00000     0.00000     0.00031     0.00126    -0.00097     0.00000
  51       0.00000     0.00000    -0.00023    -0.00021    -0.00034    -0.00000
  52       0.00000     0.00013    -0.00000    -0.00000    -0.00000    -0.07002
  53      -0.00012     0.00008     0.00000    -0.00000     0.00000     0.10712
  54       0.00013    -0.00001     0.00000    -0.00000     0.00000    -0.12470
  55       0.00000    -0.00000    -0.00008    -0.00007    -0.00012     0.00000
  56       0.00052     0.00048    -0.00000    -0.00000    -0.00000    -0.02688
  57       0.00097     0.00013     0.00000    -0.00000     0.00000    -0.03349
  58      -0.00083     0.00111    -0.00000    -0.00000    -0.00000     0.01535
  59      -0.00000     0.00000    -0.00163    -0.00145    -0.00239    -0.00000

           19          20          21          22          23          24  
       ----------- ----------- ----------- ----------- ----------- -----------
   1      -0.00000     0.00000     0.00000    -0.00000    -0.00000     0.00000
   2      -0.00656     0.00919     0.00004     0.00000     0.00000     0.00007
   3      -0.01073    -0.01601     0.00008    -0.00000    -0.00000    -0.00011
   4       0.01529    -0.00728    -0.00010    -0.00000     0.00000    -0.00006
   5      -0.00000     0.00000     0.00000    -0.00005    -0.00004    -0.00000
   6      -0.00000    -0.00000     0.00000    -0.00005    -0.00004     0.00000
   7       0.18833     0.05523    -0.00030    -0.00000     0.00000    -0.00006
   8      -0.19416     0.29080     0.00001     0.00000    -0.00000    -0.00100
   9      -0.23224    -0.19844     0.00023    -0.00000    -0.00000     0.00047
  10      -0.00169    -0.00017    -0.27523     0.00000     0.00000    -0.00003
  11      -0.00000    -0.00000     0.00000    -0.00005    -0.00004    -0.00000
  12       0.00003    -0.00025    -0.00001    -0.00000     0.00000     0.00091
  13      -0.00014     0.00003     0.00004     0.00000    -0.00000     0.00271
  14       0.00012    -0.00035    -0.00003    -0.00000    -0.00000    -0.27548
  15       0.00000     0.00000    -0.00000     0.00000    -0.00009     0.00000
  16       0.00000     0.00000    -0.00000    -0.00005     0.00017    -0.00000
  17       0.00000    -0.00000     0.00000     0.00024     0.00013     0.00000
  18      -0.00007     0.00006    -0.00004    -0.00000     0.00000     0.00010
  19       0.80439     0.00019     0.00145    -0.00000     0.00000    -0.00003
  20       0.00019     0.80268     0.00013     0.00000     0.00000     0.00015
  21       0.00145     0.00013     0.47519    -0.00000    -0.00000    -0.00005
  22      -0.00000     0.00000    -0.00000     0.58831     0.00003     0.00000
  23       0.00000     0.00000    -0.00000     0.00003     0.58833     0.00000
  24      -0.00003     0.00015    -0.00005     0.00000     0.00000     0.47473
  25       0.00004     0.00003     0.00008    -0.00000     0.00000     0.00050
  26      -0.00000    -0.00010    -0.00001    -0.00000    -0.00000     0.00071
  27      -0.00000    -0.00000    -0.00000    -0.00006    -0.00008    -0.00000
  28      -0.00000    -0.00000    -0.00000    -0.00014    -0.00006    -0.00000
  29       0.00000    -0.00000    -0.00000    -0.00007     0.00014     0.00000
  30      -0.19232    -0.02518    -0.00001     0.00000     0.00000     0.00000
  31       0.07836    -0.34816    -0.00016    -0.00000    -0.00000    -0.00061
  32       0.29274     0.07717    -0.00019    -0.00000     0.00000     0.00002
  33      -0.00129    -0.00167    -0.00028     0.00000    -0.00000     0.00064
  34       0.00250    -0.00068     0.00057    -0.00000     0.00000     0.00032
  35       0.00163     0.00033     0.00032    -0.00000    -0.00000    -0.00007
  36       0.00000     0.00000    -0.00000     0.00003     0.00002    -0.00000
  37       0.01136    -0.05932     0.00002    -0.00000    -0.00000    -0.00044
  38       0.02025     0.03476     0.00023     0.00000    -0.00000     0.00020
  39       0.06490    -0.00039     0.00041     0.00000     0.00000    -0.00011
  40      -0.00000    -0.00000    -0.00000     0.24338    -0.11839    -0.00000
  41       0.00000    -0.00000    -0.00000     0.11842     0.24341     0.00000
  42       0.00000     0.00000    -0.00000    -0.00058    -0.00137     0.00000
  43       0.00000    -0.00000     0.00000     0.00148    -0.00010    -0.00000
  44       0.00000     0.00000     0.00000    -0.00042     0.00103    -0.00000
  45      -0.00000    -0.00000    -0.00000    -0.00001    -0.00000    -0.00000
  46      -0.00477    -0.00122     0.00081    -0.00000     0.00000    -0.00014
  47       0.00809     0.00288    -0.00126    -0.00000    -0.00000     0.00027
  48      -0.00300     0.01017     0.00029     0.00000     0.00000     0.00090
  49       0.00000    -0.00000    -0.00000     0.01166     0.04510     0.00000
  50       0.00000    -0.00000    -0.00000     0.04537    -0.01196    -0.00000
  51       0.00000     0.00000    -0.00000    -0.00003    -0.00002    -0.00000
  52      -0.07804    -0.14484     0.00025    -0.00000    -0.00000    -0.00056
  53       0.09789    -0.10430    -0.00029     0.00000     0.00000    -0.00046
  54       0.12810    -0.00826    -0.00036    -0.00000     0.00000    -0.00007
  55      -0.00000    -0.00000    -0.00000    -0.00001    -0.00001     0.00000
  56      -0.03075    -0.01746     0.00007    -0.00000     0.00000     0.00055
  57       0.02895    -0.00532    -0.00023     0.00000     0.00000     0.00048
  58       0.00962    -0.04157     0.00027     0.00000     0.00000     0.00201
  59       0.00000     0.00000    -0.00000    -0.00021    -0.00017    -0.00000

           25          26          27          28          29          30  
       ----------- ----------- ----------- ----------- ----------- -----------
   1       0.00000    -0.00000     0.00019    -0.00016     0.00007     0.00000
   2       0.00008    -0.00012    -0.00000     0.00000    -0.00000     0.01728
   3       0.00009     0.00004     0.00000    -0.00000     0.00000     0.01113
   4       0.00009    -0.00002    -0.00000    -0.00000     0.00000     0.00115
   5      -0.00000     0.00000     0.00059    -0.00050     0.00023     0.00000
   6       0.00000    -0.00000     0.00013    -0.00011     0.00005    -0.00000
   7       0.00083    -0.00057    -0.00000    -0.00000    -0.00000    -0.52179
   8       0.00071     0.00036    -0.00000    -0.00000    -0.00000     0.03784
   9       0.00040    -0.00073    -0.00000     0.00000    -0.00000    -0.02344
  10       0.00004    -0.00000     0.00000    -0.00000    -0.00000     0.00087
  11      -0.00000     0.00000    -0.00022     0.00018    -0.00008     0.00000
  12       0.05284     0.26985     0.00000    -0.00000     0.00000    -0.00013
  13      -0.27057     0.05402     0.00000     0.00000     0.00000    -0.00020
  14      -0.00101     0.00312     0.00000    -0.00000    -0.00000    -0.00010
  15      -0.00000    -0.00000     0.25370     0.04104    -0.08553    -0.00000
  16      -0.00000    -0.00000     0.08333     0.02116     0.25685     0.00000
  17      -0.00000    -0.00000     0.04590    -0.26692     0.00728     0.00000
  18       0.00025    -0.00021    -0.00000    -0.00000     0.00000     0.30095
  19       0.00004    -0.00000    -0.00000    -0.00000     0.00000    -0.19232
  20       0.00003    -0.00010    -0.00000    -0.00000    -0.00000    -0.02518
  21       0.00008    -0.00001    -0.00000    -0.00000    -0.00000    -0.00001
  22      -0.00000    -0.00000    -0.00006    -0.00014    -0.00007     0.00000
  23       0.00000    -0.00000    -0.00008    -0.00006     0.00014     0.00000
  24       0.00050     0.00071    -0.00000    -0.00000     0.00000     0.00000
  25       0.47447     0.00066     0.00000    -0.00000     0.00000     0.00051
  26       0.00066     0.47458     0.00000    -0.00000    -0.00000    -0.00056
  27       0.00000     0.00000     0.37532    -0.00063     0.00028    -0.00000
  28      -0.00000    -0.00000    -0.00063     0.37512    -0.00026     0.00000
  29       0.00000    -0.00000     0.00028    -0.00026     0.37469    -0.00000
  30       0.00051    -0.00056    -0.00000     0.00000    -0.00000     0.70994
  31       0.00037     0.00046     0.00000     0.00000     0.00000    -0.00027
  32       0.00039    -0.00046     0.00000    -0.00000     0.00000    -0.00115
  33      -0.00009    -0.00059     0.00000     0.00000    -0.00000     0.00178
  34      -0.00041     0.00001     0.00000     0.00000     0.00000    -0.03193
  35       0.00070    -0.00052    -0.00000    -0.00000    -0.00000    -0.32221
  36      -0.00000    -0.00000    -0.00009     0.00007    -0.00003    -0.00000
  37      -0.00001     0.00028     0.00000     0.00000     0.00000    -0.09795
  38      -0.00040     0.00008    -0.00000    -0.00000    -0.00000    -0.20004
  39       0.00026    -0.00007     0.00000    -0.00000     0.00000    -0.05109
  40       0.00000     0.00000     0.00006     0.00005     0.00012     0.00000
  41      -0.00000     0.00000     0.00017     0.00001    -0.00005    -0.00000
  42       0.00000     0.00000    -0.12598    -0.00991     0.04445     0.00000
  43       0.00000    -0.00000     0.00675     0.12305     0.05117     0.00000
  44       0.00000    -0.00000    -0.04755     0.05314    -0.11449     0.00000
  45       0.00000    -0.00000    -0.00006     0.00005    -0.00002     0.00000
  46       0.00087    -0.00053    -0.00000    -0.00000    -0.00000    -0.07575
  47       0.00026    -0.00043     0.00000     0.00000    -0.00000     0.00331
  48      -0.00044    -0.00048     0.00000     0.00000     0.00000    -0.00457
  49      -0.00000     0.00000     0.00116     0.00058    -0.00104     0.00000
  50       0.00000    -0.00000     0.00058     0.00097     0.00105     0.00000
  51       0.00000     0.00000    -0.00019     0.00016    -0.00007    -0.00000
  52      -0.00001     0.00050     0.00000     0.00000    -0.00000    -0.01920
  53       0.00063    -0.00006     0.00000     0.00000     0.00000     0.12145
  54      -0.00044     0.00038     0.00000    -0.00000     0.00000    -0.46430
  55       0.00000    -0.00000    -0.00038     0.00032    -0.00015     0.00000
  56       0.00105    -0.00124    -0.00000     0.00000    -0.00000     0.00019
  57       0.00109    -0.00121    -0.00000    -0.00000     0.00000    -0.06990
  58      -0.00162    -0.00057    -0.00000    -0.00000     0.00000     0.01507
  59      -0.00000     0.00000    -0.00348     0.00292    -0.00135     0.00000

           31          32          33          34          35          36  
       ----------- ----------- ----------- ----------- ----------- -----------
   1      -0.00000     0.00000    -0.00000    -0.00000    -0.00000    -0.02893
   2      -0.00984     0.00574    -0.04617    -0.01440    -0.07116    -0.00000
   3       0.01414    -0.00990     0.07228    -0.00077    -0.04698     0.00000
   4       0.01150     0.01696    -0.00745     0.08503    -0.01212     0.00000
   5      -0.00000     0.00000    -0.00000    -0.00000    -0.00000     0.05123
   6       0.00000    -0.00000     0.00000    -0.00000     0.00000     0.17402
   7      -0.04383     0.00889    -0.04943     0.03552     0.62314     0.00000
   8      -0.48437    -0.19525    -0.30523    -0.54621     0.00635     0.00000
   9       0.19346    -0.48622     0.54416    -0.30403     0.05961    -0.00000
  10      -0.00016    -0.00122     0.00015    -0.00017    -0.00019    -0.00000
  11      -0.00000    -0.00000    -0.00000    -0.00000    -0.00000     0.00883
  12       0.00010    -0.00010    -0.00028    -0.00002    -0.00019    -0.00000
  13      -0.00001    -0.00023    -0.00002     0.00014    -0.00048    -0.00000
  14       0.00019    -0.00003    -0.00038    -0.00011     0.00002     0.00000
  15      -0.00000     0.00000    -0.00000    -0.00000     0.00000     0.00022
  16      -0.00000     0.00000     0.00000     0.00000     0.00000     0.00019
  17       0.00000     0.00000     0.00000     0.00000    -0.00000     0.00032
  18       0.02073     0.19190    -0.00042     0.00062    -0.00155    -0.00000
  19       0.07836     0.29274    -0.00129     0.00250     0.00163     0.00000
  20      -0.34816     0.07717    -0.00167    -0.00068     0.00033     0.00000
  21      -0.00016    -0.00019    -0.00028     0.00057     0.00032    -0.00000
  22      -0.00000    -0.00000     0.00000    -0.00000    -0.00000     0.00003
  23      -0.00000     0.00000    -0.00000     0.00000    -0.00000     0.00002
  24      -0.00061     0.00002     0.00064     0.00032    -0.00007    -0.00000
  25       0.00037     0.00039    -0.00009    -0.00041     0.00070    -0.00000
  26       0.00046    -0.00046    -0.00059     0.00001    -0.00052    -0.00000
  27       0.00000     0.00000     0.00000     0.00000    -0.00000    -0.00009
  28       0.00000    -0.00000     0.00000     0.00000    -0.00000     0.00007
  29       0.00000     0.00000    -0.00000     0.00000    -0.00000    -0.00003
  30      -0.00027    -0.00115     0.00178    -0.03193    -0.32221    -0.00000
  31       0.70898     0.00023     0.25183     0.20154    -0.01860    -0.00000
  32       0.00023     0.71086    -0.20300     0.25176    -0.02386    -0.00000
  33       0.25183    -0.20300     0.85103    -0.00063    -0.00043    -0.00000
  34       0.20154     0.25176    -0.00063     0.85146     0.00073    -0.00000
  35      -0.01860    -0.02386    -0.00043     0.00073     0.85127     0.00000
  36      -0.00000    -0.00000    -0.00000    -0.00000     0.00000     0.19864
  37       0.19341    -0.07006     0.38987     0.15173     0.18402     0.00000
  38      -0.10818    -0.01930    -0.14554    -0.12794     0.41395     0.00000
  39       0.05279     0.21688    -0.18905     0.41186     0.06104     0.00000
  40      -0.00000    -0.00000     0.00000    -0.00000    -0.00000    -0.00000
  41       0.00000    -0.00000     0.00000     0.00000     0.00000    -0.00001
  42       0.00000    -0.00000     0.00000     0.00000    -0.00000    -0.00155
  43      -0.00000     0.00000    -0.00000    -0.00000     0.00000    -0.00118
  44       0.00000     0.00000    -0.00000     0.00000    -0.00000    -0.00211
  45       0.00000     0.00000     0.00000     0.00000    -0.00000     1.10757
  46      -0.00429    -0.00231    -0.00468     0.00588     0.19557    -0.00000
  47       0.00396    -0.07630     0.13066    -0.14538     0.00747     0.00000
  48       0.07546     0.00421     0.14557     0.13061    -0.00044    -0.00000
  49       0.00000    -0.00000     0.00000    -0.00000    -0.00000     0.00019
  50       0.00000     0.00000     0.00000     0.00000     0.00000     0.00014
  51       0.00000    -0.00000     0.00000     0.00000    -0.00000    -0.67627
  52       0.32232    -0.35551     0.50626    -0.07892     0.02897    -0.00000
  53       0.34735     0.30840     0.08290     0.47495    -0.17503     0.00000
  54       0.07754     0.09534    -0.00183     0.17966     0.48160    -0.00000
  55      -0.00000     0.00000    -0.00000    -0.00000     0.00000     0.33374
  56       0.01176    -0.07240    -0.00501     0.00593     0.00253    -0.00000
  57       0.01464     0.01589     0.00221    -0.00486    -0.00612    -0.00000
  58       0.06387     0.01137    -0.00204    -0.00261     0.00084     0.00000
  59      -0.00000    -0.00000    -0.00000     0.00000    -0.00000    -0.07504

           37          38          39          40          41          42  
       ----------- ----------- ----------- ----------- ----------- -----------
   1      -0.00000     0.00000     0.00000     0.00001     0.00002    -0.00003
   2       0.02734     0.01712     0.00115     0.00000     0.00000    -0.00000
   3      -0.01597     0.02443     0.01361    -0.00000    -0.00000     0.00000
   4      -0.00635     0.01228    -0.02908    -0.00000    -0.00000     0.00000
   5      -0.00000    -0.00000     0.00000     0.00003     0.00006    -0.00001
   6       0.00000     0.00000    -0.00000     0.00001     0.00001    -0.00034
   7       0.15425     0.39907     0.09551    -0.00000    -0.00000    -0.00000
   8      -0.30713     0.17873    -0.25570     0.00000    -0.00000    -0.00000
   9       0.27076    -0.02427    -0.34412     0.00000     0.00000     0.00000
  10       0.00005     0.00019     0.00047     0.00000    -0.00000    -0.00000
  11      -0.00000    -0.00000    -0.00000    -0.00001    -0.00002    -0.00021
  12      -0.00010    -0.00003     0.00002     0.00000    -0.00000     0.00000
  13      -0.00007    -0.00012     0.00007     0.00000     0.00000    -0.00000
  14      -0.00011     0.00002    -0.00001     0.00000    -0.00000    -0.00000
  15      -0.00000    -0.00000     0.00000     0.00001    -0.00014    -0.04583
  16       0.00000    -0.00000     0.00000    -0.00013     0.00006     0.00096
  17      -0.00000     0.00000     0.00000     0.00010     0.00010    -0.00346
  18      -0.03280    -0.05579     0.02311     0.00000    -0.00000     0.00000
  19       0.01136     0.02025     0.06490    -0.00000     0.00000     0.00000
  20      -0.05932     0.03476    -0.00039    -0.00000    -0.00000     0.00000
  21       0.00002     0.00023     0.00041    -0.00000    -0.00000    -0.00000
  22      -0.00000     0.00000     0.00000     0.24338     0.11842    -0.00058
  23      -0.00000    -0.00000     0.00000    -0.11839     0.24341    -0.00137
  24      -0.00044     0.00020    -0.00011    -0.00000     0.00000     0.00000
  25      -0.00001    -0.00040     0.00026     0.00000    -0.00000     0.00000
  26       0.00028     0.00008    -0.00007     0.00000     0.00000     0.00000
  27       0.00000    -0.00000     0.00000     0.00006     0.00017    -0.12598
  28       0.00000    -0.00000    -0.00000     0.00005     0.00001    -0.00991
  29       0.00000    -0.00000     0.00000     0.00012    -0.00005     0.04445
  30      -0.09795    -0.20004    -0.05109     0.00000    -0.00000     0.00000
  31       0.19341    -0.10818     0.05279    -0.00000     0.00000     0.00000
  32      -0.07006    -0.01930     0.21688    -0.00000    -0.00000    -0.00000
  33       0.38987    -0.14554    -0.18905     0.00000     0.00000     0.00000
  34       0.15173    -0.12794     0.41186    -0.00000     0.00000     0.00000
  35       0.18402     0.41395     0.06104    -0.00000     0.00000    -0.00000
  36       0.00000     0.00000     0.00000    -0.00000    -0.00001    -0.00155
  37       0.45229    -0.00002     0.00005    -0.00000     0.00000     0.00000
  38      -0.00002     0.45230     0.00004    -0.00000    -0.00000    -0.00000
  39       0.00005     0.00004     0.45252    -0.00000     0.00000     0.00000
  40      -0.00000    -0.00000    -0.00000     0.37469     0.00000     0.00003
  41       0.00000    -0.00000     0.00000     0.00000     0.37467    -0.00151
  42       0.00000    -0.00000     0.00000     0.00003    -0.00151     0.16566
  43      -0.00000     0.00000    -0.00000     0.00127     0.00045    -0.00160
  44       0.00000    -0.00000    -0.00000    -0.00086     0.00056    -0.00296
  45      -0.00000     0.00000     0.00000    -0.00000    -0.00001    -0.00000
  46       0.04220     0.09731     0.01816    -0.00000     0.00000     0.00000
  47       0.03646     0.00336    -0.10101     0.00000     0.00000     0.00000
  48       0.09210    -0.04587     0.03155    -0.00000     0.00000    -0.00000
[...]
  59       0.03690     0.05952     0.27213    -0.24281     1.87960     1.14088

           55          56          57          58          59  
       ----------- ----------- ----------- ----------- -----------
   1       0.74497     1.11225    -0.00000     0.00000     0.00000
   2       5.50893    10.56031    -0.00000     0.00000     0.00000
   3       7.36124    20.05522    -0.00000     0.00000     0.00000
   4      -5.29434    -9.00593     0.00000    -0.00000    -0.00000
   5       3.02152    16.81259    -0.00000     0.00000     0.00000
   6      -4.45623     3.28199    -0.00000     0.00000     0.00000
   7      -0.00000    -0.00000     2.28974    -0.13180     1.76463
   8      -0.00000    -0.00000    -1.20147     2.00197     1.70959
   9       0.00000    -0.00000    -1.29840    -2.08496     1.52999
  10      -0.00000    -0.00000     4.59689    -0.26461     3.54633
  11      -0.00000    -0.00000    -2.41207     4.01916     3.43571
  12       0.00000    -0.00000    -2.60666    -4.18576     3.07477
  13       0.00000     0.00000    -2.10964     0.12144    -1.62532
  14       0.00000     0.00000     1.10697    -1.84450    -1.57462
  15       0.00000     0.00000     1.19627     1.92096    -1.40920
  16      -0.00000     0.00000    -0.21973     0.01265    -0.16960
  17       0.00000    -0.00000     0.11530    -0.19212    -0.16431
  18      -0.00000    -0.00000     0.12460     0.20008    -0.14705
  19       0.00000    -0.00000    -0.05637     0.00324    -0.04319
  20      -0.00000     0.00000     0.02958    -0.04928    -0.04185
  21       0.00000     0.00000     0.03196     0.05133    -0.03745
  22      -1.50622    -8.05725     0.00000    -0.00000    -0.00000
  23       0.00248     0.00447    -0.00000     0.00000    -0.00000
  24       0.00222     0.00400    -0.00000     0.00000     0.00000
  25      -1.50630    -8.05739     0.00000    -0.00000    -0.00000
  26       0.00215     0.00388    -0.00000     0.00000     0.00000
  27      -1.50654    -8.05782     0.00000    -0.00000    -0.00000
  28      -0.73502    -6.96193     0.00000    -0.00000    -0.00000
  29       0.00499    -0.00635     0.00000    -0.00000     0.00000
  30       0.00447    -0.00568     0.00000     0.00000    -0.00000
  31      -0.73518    -6.96173     0.00000    -0.00000    -0.00000
  32       0.00433    -0.00550     0.00000     0.00000    -0.00000
  33      -0.73566    -6.96111     0.00000    -0.00000    -0.00000
  34       1.48629    -1.53074     0.00000    -0.00000    -0.00000
  35      -0.00174    -0.00162    -0.00000    -0.00000     0.00000
  36      -0.00155    -0.00145    -0.00000     0.00000    -0.00000
  37       1.48635    -1.53069     0.00000    -0.00000    -0.00000
  38      -0.00150    -0.00141    -0.00000    -0.00000     0.00000
  39       1.48652    -1.53054     0.00000    -0.00000    -0.00000
  40       0.00000     0.00000    -2.46168     0.14170    -1.90024
  41      -0.00000     0.00000     1.29612    -2.15255    -1.83772
  42       0.00000     0.00000     1.39986     2.24128    -1.64466
  43       0.00000     0.00000    -2.46414     0.14559    -1.89719
  44      -0.00000    -0.00000    -0.00075    -0.00079     0.00846
  45       0.00000     0.00000    -2.46450     0.13812    -1.89813
  46       0.00000     0.00000     1.29176    -2.15242    -1.84107
  47       0.00000     0.00000     1.39396     2.24500    -1.64492
  48       0.00000     0.00000     1.28980    -2.15629    -1.83893
  49       0.00000     0.00000     1.39622     2.24203    -1.64793
  50       0.00000    -0.00000     0.27000    -0.01554     0.20876
  51      -0.00000     0.00000    -0.14390     0.23619     0.20054
  52       0.00000     0.00000    -0.15509    -0.24573     0.17947
  53       0.00000    -0.00000     0.27123    -0.01749     0.20716
  54       0.00000     0.00000     0.00038     0.00040    -0.00446
  55       0.00000    -0.00000     0.27141    -0.01375     0.20765
  56      -0.00000     0.00000    -0.14171     0.23613     0.20231
  57       0.00000     0.00000    -0.15213    -0.24760     0.17961
  58      -0.00000     0.00000    -0.14073     0.23807     0.20118
  59       0.00000     0.00000    -0.15326    -0.24611     0.18120
  int_init: cando_txs set to always be  F
                                NWChem TDDFT Module
                                -------------------


            General Information
            -------------------
           No. of orbitals :     118
            Alpha orbitals :      59
             Beta orbitals :      59
        Alpha frozen cores :       0
         Beta frozen cores :       0
     Alpha frozen virtuals :       0
      Beta frozen virtuals :       0
         Spin multiplicity :       2
    Number of AO functions :      59
        Use of symmetry is : off
      Symmetry adaption is : off
         Schwarz screening :  0.10D-07

              XC Information
              --------------
              Hartree-Fock (Exact) Exchange   1.00          
              LC-wPBE(h)Exchange Functional   1.00          
     Perdew 1991 LDA Correlation Functional   1.00 local    
    PerdewBurkeErnz. Correlation Functional   1.00 non-local
           Alpha           :  0.00
           Beta            :  1.00
           Gamma           :  0.28

             TDDFT Information
             -----------------
          Calculation type : TDDFT             
         Wavefunction type : Unrestricted
          No. of electrons :      13
           Alpha electrons :       7
            Beta electrons :       6
              No. of roots :       5
          Max subspacesize :    5000
            Max iterations :     100
               Target root :       1
           Target symmetry : none
      Symmetry restriction : off
                 Algorithm : Optimal
        Davidson threshold :  0.10D-03

            Memory Information
            ------------------
          Available GA space size is       52428793038 doubles
          Available MA space size is        4194415148 doubles
          Length of a trial vector is          364     318
          Algorithm : Incore multiple tensor contraction
          Estimated peak GA usage is          14231628 doubles
          Estimated peak MA usage is             18000 doubles

    5 smallest eigenvalue differences (eV) 
--------------------------------------------------------
  No. Spin  Occ  Vir  Irrep   E(Occ)    E(Vir)   E(Diff)
--------------------------------------------------------
    1    1    7    8 a        -0.215    -0.012     5.509
    2    1    7    9 a        -0.215    -0.012     5.509
    3    1    7   10 a        -0.215     0.023     6.485
    4    1    7   11 a        -0.215     0.042     6.996
    5    1    7   12 a        -0.215     0.045     7.071
--------------------------------------------------------

  Entering Davidson iterations
  Unrestricted

  Iter   NTrls   NConv    DeltaV     DeltaE      Time   
  ----  ------  ------  ---------  ---------  --------- 
    1      5       0     0.61E-01   0.10+100        2.7
    2     15       0     0.31E-01   0.15E-01        4.1
    3     25       0     0.14E-01   0.13E-02        4.1
    4     33       0     0.37E-02   0.11E-03        3.6
    5     41       2     0.19E-03   0.24E-05        3.5
    6     46       5     0.35E-04   0.26E-07        2.6
  ----  ------  ------  ---------  ---------  --------- 
  Convergence criterion met

  Ground state a        -242.244062175647 a.u.
  <S2> =   0.7590

  ----------------------------------------------------------------------------
  Root   1         a              0.000069376 a.u.                0.0019 eV 
  <S2> =   0.7599
  ----------------------------------------------------------------------------
     Transition Moments    X -0.00000   Y -0.00000   Z -0.00000
     Transition Moments   XX 25.01915  XY  2.73801  XZ  6.90074
     Transition Moments   YY-18.17749  YZ-11.95632  ZZ -6.84166
     Dipole Oscillator Strength                    0.0000000000
     Electric Quadrupole                           0.0000000000
     Magnetic Dipole                               0.0000000000
     Total Oscillator Strength                     0.0000000000

     Occ.    6 alpha a   ---  Virt.   14 alpha a   -0.26115 X
     Occ.    6 alpha a   ---  Virt.   14 alpha a   -0.26082 Y
     Occ.    6 alpha a   ---  Virt.   15 alpha a   -0.05587 X
     Occ.    6 alpha a   ---  Virt.   15 alpha a   -0.05580 Y
     Occ.    6 alpha a   ---  Virt.   23 alpha a   -0.26310 X
     Occ.    6 alpha a   ---  Virt.   23 alpha a   -0.26284 Y
     Occ.    6 alpha a   ---  Virt.   24 alpha a   -0.05218 X
     Occ.    6 alpha a   ---  Virt.   24 alpha a   -0.05213 Y
     Occ.    7 alpha a   ---  Virt.    8 alpha a   -4.75951 X
     Occ.    7 alpha a   ---  Virt.    8 alpha a   -4.66252 Y
     Occ.    7 alpha a   ---  Virt.    9 alpha a   -0.52002 X
     Occ.    7 alpha a   ---  Virt.    9 alpha a   -0.50942 Y
     Occ.    7 alpha a   ---  Virt.   12 alpha a   -1.30294 X
     Occ.    7 alpha a   ---  Virt.   12 alpha a   -1.27729 Y
     Occ.    7 alpha a   ---  Virt.   13 alpha a   -0.14297 X
     Occ.    7 alpha a   ---  Virt.   13 alpha a   -0.14015 Y
     Occ.    7 alpha a   ---  Virt.   21 alpha a    0.43864 X
     Occ.    7 alpha a   ---  Virt.   21 alpha a    0.43003 Y
     Occ.    7 alpha a   ---  Virt.   36 alpha a   -0.08804 X
     Occ.    7 alpha a   ---  Virt.   36 alpha a   -0.08631 Y
     Occ.    6 beta  a   ---  Virt.   17 beta  a    0.17643 X
     Occ.    6 beta  a   ---  Virt.   17 beta  a    0.17635 Y
     Occ.    6 beta  a   ---  Virt.   25 beta  a    0.35755 X
     Occ.    6 beta  a   ---  Virt.   25 beta  a    0.35744 Y
     Occ.    6 beta  a   ---  Virt.   26 beta  a    0.07054 X
     Occ.    6 beta  a   ---  Virt.   26 beta  a    0.07052 Y
     Occ.    6 beta  a   ---  Virt.   42 beta  a    0.14679 X
     Occ.    6 beta  a   ---  Virt.   42 beta  a    0.14677 Y
  ----------------------------------------------------------------------------
  Root   2         a              0.000069396 a.u.                0.0019 eV 
  <S2> =   0.7599
  ----------------------------------------------------------------------------
     Transition Moments    X  0.00000   Y  0.00000   Z  0.00000
     Transition Moments   XX -5.25654  XY-11.56315  XZ 10.82786
     Transition Moments   YY-17.47120  YZ  4.87994  ZZ 22.72774
     Dipole Oscillator Strength                    0.0000000000
     Electric Quadrupole                           0.0000000000
     Magnetic Dipole                               0.0000000000
     Total Oscillator Strength                     0.0000000000

     Occ.    6 alpha a   ---  Virt.   14 alpha a   -0.05586 X
     Occ.    6 alpha a   ---  Virt.   14 alpha a   -0.05579 Y
     Occ.    6 alpha a   ---  Virt.   15 alpha a    0.26112 X
     Occ.    6 alpha a   ---  Virt.   15 alpha a    0.26078 Y
     Occ.    6 alpha a   ---  Virt.   23 alpha a   -0.05217 X
     Occ.    6 alpha a   ---  Virt.   23 alpha a   -0.05212 Y
     Occ.    6 alpha a   ---  Virt.   24 alpha a    0.26305 X
     Occ.    6 alpha a   ---  Virt.   24 alpha a    0.26281 Y
     Occ.    7 alpha a   ---  Virt.    8 alpha a    0.51995 X
     Occ.    7 alpha a   ---  Virt.    8 alpha a    0.50935 Y
     Occ.    7 alpha a   ---  Virt.    9 alpha a   -4.75887 X
     Occ.    7 alpha a   ---  Virt.    9 alpha a   -4.66187 Y
     Occ.    7 alpha a   ---  Virt.   12 alpha a    0.14295 X
     Occ.    7 alpha a   ---  Virt.   12 alpha a    0.14013 Y
     Occ.    7 alpha a   ---  Virt.   13 alpha a   -1.30277 X
     Occ.    7 alpha a   ---  Virt.   13 alpha a   -1.27711 Y
     Occ.    7 alpha a   ---  Virt.   22 alpha a    0.43858 X
     Occ.    7 alpha a   ---  Virt.   22 alpha a    0.42998 Y
     Occ.    7 alpha a   ---  Virt.   37 alpha a   -0.08802 X
     Occ.    7 alpha a   ---  Virt.   37 alpha a   -0.08631 Y
     Occ.    6 beta  a   ---  Virt.   18 beta  a   -0.17641 X
     Occ.    6 beta  a   ---  Virt.   18 beta  a   -0.17633 Y
     Occ.    6 beta  a   ---  Virt.   25 beta  a    0.07053 X
     Occ.    6 beta  a   ---  Virt.   25 beta  a    0.07051 Y
     Occ.    6 beta  a   ---  Virt.   26 beta  a   -0.35750 X
     Occ.    6 beta  a   ---  Virt.   26 beta  a   -0.35739 Y
     Occ.    6 beta  a   ---  Virt.   43 beta  a   -0.14677 X
     Occ.    6 beta  a   ---  Virt.   43 beta  a   -0.14675 Y
  ----------------------------------------------------------------------------
  Root   3         a              0.117207085 a.u.                3.1894 eV 
  <S2> =   0.7640
  ----------------------------------------------------------------------------
     Transition Moments    X  0.79999   Y  0.77504   Z  0.69362
     Transition Moments   XX -0.00000  XY -0.00000  XZ -0.00000
     Transition Moments   YY -0.00000  YZ -0.00000  ZZ -0.00000
     Dipole Oscillator Strength                    0.1345362742
     Electric Quadrupole                           0.0000000000
     Magnetic Dipole                               0.0000000000
     Total Oscillator Strength                     0.1345362742

     Occ.    6 alpha a   ---  Virt.   11 alpha a    0.05077 X
     Occ.    7 alpha a   ---  Virt.   10 alpha a   -0.91179 X
     Occ.    7 alpha a   ---  Virt.   16 alpha a    0.10165 X
     Occ.    7 alpha a   ---  Virt.   19 alpha a    0.38755 X
     Occ.    7 alpha a   ---  Virt.   35 alpha a   -0.06330 X
  ----------------------------------------------------------------------------
  Root   4         a              0.148823624 a.u.                4.0497 eV 
  <S2> =   0.7603
  ----------------------------------------------------------------------------
     Transition Moments    X -0.00000   Y -0.00000   Z -0.00000
     Transition Moments   XX -1.90320  XY -0.29787  XZ -0.42480
     Transition Moments   YY  1.20918  YZ  0.92885  ZZ  0.69411
     Dipole Oscillator Strength                    0.0000000000
     Electric Quadrupole                           0.0000000687
     Magnetic Dipole                               0.0000000000
     Total Oscillator Strength                     0.0000000687

     Occ.    7 alpha a   ---  Virt.    8 alpha a    0.27060 X
     Occ.    7 alpha a   ---  Virt.   12 alpha a   -0.94514 X
     Occ.    7 alpha a   ---  Virt.   21 alpha a    0.17795 X
  ----------------------------------------------------------------------------
  Root   5         a              0.150463250 a.u.                4.0943 eV 
  <S2> =   0.7670
  ----------------------------------------------------------------------------
     Transition Moments    X  0.00000   Y  0.00000   Z  0.00000
     Transition Moments   XX  3.09919  XY  1.43726  XZ  1.28489
     Transition Moments   YY  3.00918  YZ  1.24528  ZZ  2.72947
     Dipole Oscillator Strength                    0.0000000000
     Electric Quadrupole                           0.0000000962
     Magnetic Dipole                               0.0000000000
     Total Oscillator Strength                     0.0000000962

     Occ.    7 alpha a   ---  Virt.   11 alpha a    0.98694 X
     Occ.    7 alpha a   ---  Virt.   20 alpha a   -0.14068 X

              Target root =      1
          Target symmetry = none
      Ground state energy =   -242.244062175647
        Excitation energy =      0.000069376089
     Excited state energy =   -242.243992799558

  stored tddft:energy   -242.24399279955801     

 Task  times  cpu:       20.2s     wall:       24.3s


                                NWChem Input Module
                                -------------------


 Summary of allocated global arrays
-----------------------------------
  No active global arrays


MA_summarize_allocated_blocks: starting scan ...
heap block 'gridpts', handle 85, address 0x13fe6e28:
	type of elements:		double precision
	number of elements:		1048463508
	address of client space:	0x13fe6e80
	index for client space:		13773095
	total number of bytes:		8387708160
MA_summarize_allocated_blocks: scan completed: 1 heap block, 0 stack blocks
MA usage statistics:

	allocation statistics:
					      heap	     stack
					      ----	     -----
	current number of blocks	         1	         0
	maximum number of blocks	        18	        54
	current total bytes		8387708160	         0
	maximum total bytes		8388305136	  22513464
	maximum total K-bytes		   8388306	     22514
	maximum total M-bytes		      8389	        23


                                     CITATION
                                     --------
                Please cite the following reference when publishing
                           results obtained with NWChem:

          E. Apra, E. J. Bylaska, W. A. de Jong, N. Govind, K. Kowalski,
       T. P. Straatsma, M. Valiev, H. J. J. van Dam, Y. Alexeev, J. Anchell,
       V. Anisimov, F. W. Aquino, R. Atta-Fynn, J. Autschbach, N. P. Bauman,
     J. C. Becca, D. E. Bernholdt, K. Bhaskaran-Nair, S. Bogatko, P. Borowski,
         J. Boschen, J. Brabec, A. Bruner, E. Cauet, Y. Chen, G. N. Chuev,
      C. J. Cramer, J. Daily, M. J. O. Deegan, T. H. Dunning Jr., M. Dupuis,
   K. G. Dyall, G. I. Fann, S. A. Fischer, A. Fonari, H. Fruchtl, L. Gagliardi,
      J. Garza, N. Gawande, S. Ghosh, K. Glaesemann, A. W. Gotz, J. Hammond,
       V. Helms, E. D. Hermes, K. Hirao, S. Hirata, M. Jacquelin, L. Jensen,
   B. G. Johnson, H. Jonsson, R. A. Kendall, M. Klemm, R. Kobayashi, V. Konkov,
      S. Krishnamoorthy, M. Krishnan, Z. Lin, R. D. Lins, R. J. Littlefield,
      A. J. Logsdail, K. Lopata, W. Ma, A. V. Marenich, J. Martin del Campo,
   D. Mejia-Rodriguez, J. E. Moore, J. M. Mullin, T. Nakajima, D. R. Nascimento,
    J. A. Nichols, P. J. Nichols, J. Nieplocha, A. Otero-de-la-Roza, B. Palmer,
    A. Panyala, T. Pirojsirikul, B. Peng, R. Peverati, J. Pittner, L. Pollack,
   R. M. Richard, P. Sadayappan, G. C. Schatz, W. A. Shelton, D. W. Silverstein,
   D. M. A. Smith, T. A. Soares, D. Song, M. Swart, H. L. Taylor, G. S. Thomas,
            V. Tipparaju, D. G. Truhlar, K. Tsemekhman, T. Van Voorhis,
      A. Vazquez-Mayagoitia, P. Verma, O. Villa, A. Vishnu, K. D. Vogiatzis,
        D. Wang, J. H. Weare, M. J. Williamson, T. L. Windus, K. Wolinski,
        A. T. Wong, Q. Wu, C. Yang, Q. Yu, M. Zacharias, Z. Zhang, Y. Zhao,
                                and R. J. Harrison
                        "NWChem: Past, present, and future
                         J. Chem. Phys. 152, 184102 (2020)
                               doi:10.1063/5.0004997

                                      AUTHORS
                                      -------
  E. Apra, E. J. Bylaska, N. Govind, K. Kowalski, M. Valiev, D. Mejia-Rodriguez,
       A. Kunitsa, N. P. Bauman, A. Panyala, W. A. de Jong, T. P. Straatsma,
   H. J. J. van Dam, D. Wang, T. L. Windus, J. Hammond, J. Autschbach, A. Woods,
    K. Bhaskaran-Nair, J. Brabec, K. Lopata, S. A. Fischer, S. Krishnamoorthy,
     M. Jacquelin, W. Ma, M. Klemm, O. Villa, Y. Chen, V. Anisimov, F. Aquino,
     S. Hirata, M. T. Hackler, E. Hermes, L. Jensen, J. E. Moore, J. C. Becca,
      V. Konjkov, T. Risthaus, M. Malagoli, A. Marenich, A. Otero-de-la-Roza,
        J. Mullin, P. Nichols, R. Peverati, J. Pittner, Y. Zhao, P.-D. Fan,
        A. Fonari, M. J. Williamson, R. J. Harrison, J. R. Rehr, M. Dupuis,
     D. Silverstein, D. M. A. Smith, J. Nieplocha, V. Tipparaju, M. Krishnan,
     B. E. Van Kuiken, A. Vazquez-Mayagoitia, M. Swart, Q. Wu, T. Van Voorhis,
     A. A. Auer, M. Nooijen, L. D. Crosby, E. Brown, G. Cisneros, G. I. Fann,
   H. Fruchtl, J. Garza, K. Hirao, R. A. Kendall, J. A. Nichols, K. Tsemekhman,
    K. Wolinski, J. Anchell, D. E. Bernholdt, P. Borowski, T. Clark, D. Clerc,
   H. Dachsel, M. J. O. Deegan, K. Dyall, D. Elwood, E. Glendening, M. Gutowski,
   A. C. Hess, J. Jaffe, B. G. Johnson, J. Ju, R. Kobayashi, R. Kutteh, Z. Lin,
   R. Littlefield, X. Long, B. Meng, T. Nakajima, S. Niu, L. Pollack, M. Rosing,
   K. Glaesemann, G. Sandrone, M. Stave, H. Taylor, G. Thomas, J. H. van Lenthe,
                               A. T. Wong, Z. Zhang.

 Total times  cpu:       20.2s     wall:       24.9s
