 argument  1 = /home/aditisingh4812/nw_chem/nwchem-run/nwchem-run/tddft/open/open_atom/geom-MOL/as.nw
                                         
                                         


             Northwest Computational Chemistry Package (NWChem) 7.2.3
             --------------------------------------------------------


                    Environmental Molecular Sciences Laboratory
                       Pacific Northwest National Laboratory
                                Richland, WA 99352

                              Copyright (c) 1994-2022
                       Pacific Northwest National Laboratory
                            Battelle Memorial Institute

             NWChem is an open-source computational chemistry package
                        distributed under the terms of the
                      Educational Community License (ECL) 2.0
             A copy of the license is included with this distribution
                              in the LICENSE.TXT file

                                  ACKNOWLEDGMENT
                                  --------------

            This software and its documentation were developed at the
            EMSL at Pacific Northwest National Laboratory, a multiprogram
            national laboratory, operated for the U.S. Department of Energy
            by Battelle under Contract Number DE-AC05-76RL01830. Support
            for this work was provided by the Department of Energy Office
            of Biological and Environmental Research, Office of Basic
            Energy Sciences, and the Office of Advanced Scientific Computing.


           Job information
           ---------------

    hostname        = p17
    program         = /home/aditisingh4812/nw_chem/nwchem-7.2.3-release.revision-d690e065-srconly.2024-08-27/nwchem-7.2.3/bin/LINUX64/nwchem
    date            = Thu May  8 11:45:18 2025

    compiled        = Mon_Apr_07_18:51:54_2025
    source          = /home/aditisingh4812/nw_chem/nwchem-7.2.3-release.revision-d690e065-srconly.2024-08-27/nwchem-7.2.3
    nwchem branch   = 7.2.3
    nwchem revision = d690e065
    ga revision     = 5.8.0
    use scalapack   = F
    input           = /home/aditisingh4812/nw_chem/nwchem-run/nwchem-run/tddft/open/open_atom/geom-MOL/as.nw
    prefix          = as.
    data base       = ./as.db
    status          = startup
    nproc           =        8
    time left       =     -1s



           Memory information
           ------------------

    heap     = 2621439998 doubles =  20000.0 Mbytes
    stack    = 2621439995 doubles =  20000.0 Mbytes
    global   = 6553600000 doubles =  50000.0 Mbytes (distinct from heap & stack)
    total    = ********** doubles =  90000.0 Mbytes
    verify   = yes
    hardfail = no 


           Directory information
           ---------------------

  0 permanent = .
  0 scratch   = .




                                NWChem Input Module
                                -------------------



 Scaling coordinates for geometry "geometry" by  1.889725989
 (inverse scale =  0.529177249)



                             Geometry "geometry" -> ""
                             -------------------------

 Output coordinates in angstroms (scale by  1.889725989 to convert to a.u.)

  No.       Tag          Charge          X              Y              Z
 ---- ---------------- ---------- -------------- -------------- --------------
    1 As                  33.0000     0.00000000     0.00000000     0.00000000

      Atomic Mass 
      ----------- 

      As                74.921600


 Effective nuclear repulsion energy (a.u.)       0.0000000000

            Nuclear Dipole moment (a.u.) 
            ----------------------------
        X                 Y               Z
 ---------------- ---------------- ----------------
     0.0000000000     0.0000000000     0.0000000000


            XYZ format geometry
            -------------------
     1
 geometry
 As                    0.00000000     0.00000000     0.00000000



 Summary of "ao basis" -> "" (cartesian)
 ------------------------------------------------------------------------------
       Tag                 Description            Shells   Functions and Types
 ---------------- ------------------------------  ------  ---------------------
 *                        aug-cc-pVTZ                 on all atoms 


  pbe96 is a nonlocal functional; adding pw91lda local functional. 

                                 NWChem DFT Module
                                 -----------------


                      Basis "ao basis" -> "ao basis" (cartesian)
                      -----
  As (Arsenic)
  ------------
            Exponent  Coefficients 
       -------------- ---------------------------------------------------------
  1 S  8.48233960E+06  0.000007
  1 S  1.27015090E+06  0.000053
  1 S  2.89056960E+05  0.000277
  1 S  8.18798490E+04  0.001170
  1 S  2.67165640E+04  0.004242
  1 S  9.64758420E+03  0.013656
  1 S  3.76411950E+03  0.039340
  1 S  1.56156560E+03  0.099929
  1 S  6.80814670E+02  0.212156
  1 S  3.09241190E+02  0.336387
  1 S  1.45257360E+02  0.315513
  1 S  6.97390480E+01  0.118131
  1 S  3.17703250E+01  0.008008
  1 S  1.53917570E+01  0.000329
  1 S  7.34152600E+00 -0.000152
  1 S  3.32371600E+00  0.000025
  1 S  1.48586700E+00 -0.000037
  1 S  2.11500000E-01 -0.000009

  2 S  8.48233960E+06 -0.000002
  2 S  1.27015090E+06 -0.000017
  2 S  2.89056960E+05 -0.000087
  2 S  8.18798490E+04 -0.000365
  2 S  2.67165640E+04 -0.001331
  2 S  9.64758420E+03 -0.004309
  2 S  3.76411950E+03 -0.012697
  2 S  1.56156560E+03 -0.033616
  2 S  6.80814670E+02 -0.078947
  2 S  3.09241190E+02 -0.151446
  2 S  1.45257360E+02 -0.204201
  2 S  6.97390480E+01 -0.055737
  2 S  3.17703250E+01  0.418761
  2 S  1.53917570E+01  0.575876
  2 S  7.34152600E+00  0.169684
  2 S  3.32371600E+00  0.006066
  2 S  1.48586700E+00  0.001761
  2 S  2.11500000E-01  0.000232

  3 S  8.48233960E+06  0.000001
  3 S  1.27015090E+06  0.000006
  3 S  2.89056960E+05  0.000034
  3 S  8.18798490E+04  0.000142
  3 S  2.67165640E+04  0.000519
  3 S  9.64758420E+03  0.001680
  3 S  3.76411950E+03  0.004968
  3 S  1.56156560E+03  0.013212
  3 S  6.80814670E+02  0.031457
  3 S  3.09241190E+02  0.061845
  3 S  1.45257360E+02  0.087957
  3 S  6.97390480E+01  0.025755
  3 S  3.17703250E+01 -0.245546
  3 S  1.53917570E+01 -0.509057
  3 S  7.34152600E+00 -0.055575
  3 S  3.32371600E+00  0.708380
  3 S  1.48586700E+00  0.523103
  3 S  2.11500000E-01 -0.011118

  4 S  8.48233960E+06 -0.000000
  4 S  1.27015090E+06 -0.000002
  4 S  2.89056960E+05 -0.000009
  4 S  8.18798490E+04 -0.000039
  4 S  2.67165640E+04 -0.000143
  4 S  9.64758420E+03 -0.000463
  4 S  3.76411950E+03 -0.001369
  4 S  1.56156560E+03 -0.003644
  4 S  6.80814670E+02 -0.008688
  4 S  3.09241190E+02 -0.017156
  4 S  1.45257360E+02 -0.024551
  4 S  6.97390480E+01 -0.007352
  4 S  3.17703250E+01  0.072009
  4 S  1.53917570E+01  0.157625
  4 S  7.34152600E+00  0.014207
  4 S  3.32371600E+00 -0.285159
  4 S  1.48586700E+00 -0.388535
  4 S  2.11500000E-01  0.649534

  5 S  4.21086000E-01  1.000000

  6 S  8.89740000E-02  1.000000

  7 S  3.34070000E-02  1.000000

  8 P  7.42386140E+03  0.000460
  8 P  1.75951660E+03  0.003982
  8 P  5.70229160E+02  0.021464
  8 P  2.16579970E+02  0.082462
  8 P  9.07342520E+01  0.223890
  8 P  4.03087910E+01  0.392070
  8 P  1.85555020E+01  0.354224
  8 P  8.39654300E+00  0.104864
  8 P  3.76736700E+00  0.003366
  8 P  1.62970100E+00  0.001850
  8 P  2.22503000E-01  0.000230

  9 P  7.42386140E+03 -0.000179
  9 P  1.75951660E+03 -0.001564
  9 P  5.70229160E+02 -0.008500
  9 P  2.16579970E+02 -0.033633
  9 P  9.07342520E+01 -0.095323
  9 P  4.03087910E+01 -0.179363
  9 P  1.85555020E+01 -0.146668
  9 P  8.39654300E+00  0.196602
  9 P  3.76736700E+00  0.537209
  9 P  1.62970100E+00  0.385736
  9 P  2.22503000E-01 -0.005401

 10 P  7.42386140E+03  0.000040
 10 P  1.75951660E+03  0.000349
 10 P  5.70229160E+02  0.001895
 10 P  2.16579970E+02  0.007533
 10 P  9.07342520E+01  0.021432
 10 P  4.03087910E+01  0.040781
 10 P  1.85555020E+01  0.032525
 10 P  8.39654300E+00 -0.054883
 10 P  3.76736700E+00 -0.151192
 10 P  1.62970100E+00 -0.124901
 10 P  2.22503000E-01  0.585529

 11 P  5.68263000E-01  1.000000

 12 P  8.04050000E-02  1.000000

 13 P  2.67990000E-02  1.000000

 14 D  3.21019610E+02  0.001684
 14 D  9.62493050E+01  0.014159
 14 D  3.66449630E+01  0.062826
 14 D  1.54939650E+01  0.178499
 14 D  6.89113800E+00  0.320945
 14 D  3.05483100E+00  0.377352
 14 D  1.31424100E+00  0.275023

 15 D  5.13430000E-01  1.000000

 16 D  1.87700000E-01  1.000000

 17 D  7.00000000E-02  1.000000

 18 F  4.15800000E-01  1.000000

 19 F  1.69000000E-01  1.000000



 Summary of "ao basis" -> "ao basis" (cartesian)
 ------------------------------------------------------------------------------
       Tag                 Description            Shells   Functions and Types
 ---------------- ------------------------------  ------  ---------------------
 As                       aug-cc-pVTZ               19       69   7s6p4d2f




 Summary of "ao basis" -> "ao basis" (cartesian)
 ------------------------------------------------------------------------------
       Tag                 Description            Shells   Functions and Types
 ---------------- ------------------------------  ------  ---------------------
 As                       aug-cc-pVTZ               19       69   7s6p4d2f




                         Geometry "geometry" -> "geometry"
                         ---------------------------------

 Output coordinates in angstroms (scale by  1.889725989 to convert to a.u.)

  No.       Tag          Charge          X              Y              Z
 ---- ---------------- ---------- -------------- -------------- --------------
    1 As                  33.0000     0.00000000     0.00000000     0.00000000

      Atomic Mass 
      ----------- 

      As                74.921600


 Effective nuclear repulsion energy (a.u.)       0.0000000000

            Nuclear Dipole moment (a.u.) 
            ----------------------------
        X                 Y               Z
 ---------------- ---------------- ----------------
     0.0000000000     0.0000000000     0.0000000000


                      Basis "ao basis" -> "ao basis" (cartesian)
                      -----
  As (Arsenic)
  ------------
            Exponent  Coefficients 
       -------------- ---------------------------------------------------------
  1 S  8.48233960E+06  0.761739
  1 S  1.27015090E+06  1.423756
  1 S  2.89056960E+05  2.464645
  1 S  8.18798490E+04  4.036948
  1 S  2.67165640E+04  6.317957
  1 S  9.64758420E+03  9.474105
  1 S  3.76411950E+03 13.473831
  1 S  1.56156560E+03 17.691835
  1 S  6.80814670E+02 20.152840
  1 S  3.09241190E+02 17.679581
  1 S  1.45257360E+02  9.408718
  1 S  6.97390480E+01  2.031804
  1 S  3.17703250E+01  0.076371
  1 S  1.53917570E+01  0.001824
  1 S  7.34152600E+00 -0.000484
  1 S  3.32371600E+00  0.000043
  1 S  1.48586700E+00 -0.000035
  1 S  2.11500000E-01 -0.000002

  2 S  8.48233960E+06 -0.235225
  2 S  1.27015090E+06 -0.444891
  2 S  2.89056960E+05 -0.769366
  2 S  8.18798490E+04 -1.260115
  2 S  2.67165640E+04 -1.982023
  2 S  9.64758420E+03 -2.989499
  2 S  3.76411950E+03 -4.348472
  2 S  1.56156560E+03 -5.951055
  2 S  6.80814670E+02 -7.498684
  2 S  3.09241190E+02 -7.958991
  2 S  1.45257360E+02 -6.088918
  2 S  6.97390480E+01 -0.958575
  2 S  3.17703250E+01  3.993557
  2 S  1.53917570E+01  3.189136
  2 S  7.34152600E+00  0.539335
  2 S  3.32371600E+00  0.010642
  2 S  1.48586700E+00  0.001688
  2 S  2.11500000E-01  0.000051

  3 S  8.48233960E+06  0.091702
  3 S  1.27015090E+06  0.176594
  3 S  2.89056960E+05  0.306388
  3 S  8.18798490E+04  0.502333
  3 S  2.67165640E+04  0.790660
  3 S  9.64758420E+03  1.192832
  3 S  3.76411950E+03  1.741034
  3 S  1.56156560E+03  2.393462
  3 S  6.80814670E+02  3.057650
  3 S  3.09241190E+02  3.326052
  3 S  1.45257360E+02  2.683962
  3 S  6.97390480E+01  0.453283
  3 S  3.17703250E+01 -2.396366
  3 S  1.53917570E+01 -2.884941
  3 S  7.34152600E+00 -0.180768
  3 S  3.32371600E+00  1.271710
  3 S  1.48586700E+00  0.513424
  3 S  2.11500000E-01 -0.002529

  4 S  8.48233960E+06 -0.036091
  4 S  1.27015090E+06 -0.078189
  4 S  2.89056960E+05 -0.133107
  4 S  8.18798490E+04 -0.217846
  4 S  2.67165640E+04 -0.342846
  4 S  9.64758420E+03 -0.517347
  4 S  3.76411950E+03 -0.755156
  4 S  1.56156560E+03 -1.039273
  4 S  6.80814670E+02 -1.329513
  4 S  3.09241190E+02 -1.452479
  4 S  1.45257360E+02 -1.179399
  4 S  6.97390480E+01 -0.203712
  4 S  3.17703250E+01  1.106324
  4 S  1.53917570E+01  1.406285
  4 S  7.34152600E+00  0.072750
  4 S  3.32371600E+00 -0.805910
  4 S  1.48586700E+00 -0.600338
  4 S  2.11500000E-01  0.232576

  5 S  4.21086000E-01  0.372553

  6 S  8.89740000E-02  0.116107

  7 S  3.34070000E-02  0.055691

  8 P  7.42386140E+03 45.173066
  8 P  1.75951660E+03 64.685141
  8 P  5.70229160E+02 85.250558
  8 P  2.16579970E+02 97.657137
  8 P  9.07342520E+01 89.367170
  8 P  4.03087910E+01 56.760030
  8 P  1.85555020E+01 19.444531
  8 P  8.39654300E+00  2.136394
  8 P  3.76736700E+00  0.025185
  8 P  1.62970100E+00  0.004854
  8 P  2.22503000E-01  0.000050

  9 P  7.42386140E+03-18.067069
  9 P  1.75951660E+03-26.048587
  9 P  5.70229160E+02-34.614139
  9 P  2.16579970E+02-40.837819
  9 P  9.07342520E+01-39.011155
  9 P  4.03087910E+01-26.623157
  9 P  1.85555020E+01 -8.254766
  9 P  8.39654300E+00  4.106678
  9 P  3.76736700E+00  4.120676
  9 P  1.62970100E+00  1.038014
  9 P  2.22503000E-01 -0.001206

 10 P  7.42386140E+03  6.637684
 10 P  1.75951660E+03  9.595653
 10 P  5.70229160E+02 12.749586
 10 P  2.16579970E+02 15.108396
 10 P  9.07342520E+01 14.488486
 10 P  4.03087910E+01  9.999096
 10 P  1.85555020E+01  3.023871
 10 P  8.39654300E+00 -1.893745
 10 P  3.76736700E+00 -1.915725
 10 P  1.62970100E+00 -0.555210
 10 P  2.22503000E-01  0.216010

 11 P  5.68263000E-01  0.703278

 12 P  8.04050000E-02  0.061030

 13 P  2.67990000E-02  0.015456

 14 D  3.21019610E+02 69.682947
 14 D  9.62493050E+01 71.173825
 14 D  3.66449630E+01 58.279781
 14 D  1.54939650E+01 36.709224
 14 D  6.89113800E+00 15.988003
 14 D  3.05483100E+00  4.527181
 14 D  1.31424100E+00  0.754058

 15 D  5.13430000E-01  0.512568

 16 D  1.87700000E-01  0.088099

 17 D  7.00000000E-02  0.015679

 18 F  4.15800000E-01  0.204383

 19 F  1.69000000E-01  0.026959



    Basis function labels
    ---------------------
       No.  Atm El Type
       ---  --- -- ----
        1    1 As s          
        2    1 As s          
        3    1 As s          
        4    1 As s          
        5    1 As s          
        6    1 As s          
        7    1 As s          
        8    1 As px         
        9    1 As py         
       10    1 As pz         
       11    1 As px         
       12    1 As py         
       13    1 As pz         
       14    1 As px         
       15    1 As py         
       16    1 As pz         
       17    1 As px         
       18    1 As py         
       19    1 As pz         
       20    1 As px         
       21    1 As py         
       22    1 As pz         
       23    1 As px         
       24    1 As py         
       25    1 As pz         
       26    1 As dxx        
       27    1 As dxy        
       28    1 As dxz        
       29    1 As dyy        
       30    1 As dyz        
       31    1 As dzz        
       32    1 As dxx        
       33    1 As dxy        
       34    1 As dxz        
       35    1 As dyy        
       36    1 As dyz        
       37    1 As dzz        
       38    1 As dxx        
       39    1 As dxy        
       40    1 As dxz        
       41    1 As dyy        
       42    1 As dyz        
       43    1 As dzz        
       44    1 As dxx        
       45    1 As dxy        
       46    1 As dxz        
       47    1 As dyy        
       48    1 As dyz        
       49    1 As dzz        
       50    1 As fxxx       
       51    1 As fxxy       
       52    1 As fxxz       
       53    1 As fxyy       
       54    1 As fxyz       
       55    1 As fxzz       
       56    1 As fyyy       
       57    1 As fyyz       
       58    1 As fyzz       
       59    1 As fzzz       
       60    1 As fxxx       
       61    1 As fxxy       
       62    1 As fxxz       
       63    1 As fxyy       
       64    1 As fxyz       
       65    1 As fxzz       
       66    1 As fyyy       
       67    1 As fyyz       
       68    1 As fyzz       
       69    1 As fzzz       
  int_init: cando_txs set to always be  F

 Schwarz integral screening summary 
 ---------------------------------- 

        No. of atom pairs =       1
       No. of shell pairs =     190

 Atomic screening 

   value      no.     value      no.     value      no.     value      no.   
  -------- ------    -------- ------    -------- ------    -------- ------   
  0.00D+00      0    1.00D-13      0    1.00D-12      0    1.00D-11      0
  1.00D-10      0    1.00D-09      0    1.00D-08      0    1.00D-07      0
  1.00D-06      0    1.00D-05      0    1.00D-04      0    1.00D-03      0
  1.00D-02      0    1.00D-01      0    1.00D+00      0    1.00D+01      1


 Shell screening 

   value      no.     value      no.     value      no.     value      no.   
  -------- ------    -------- ------    -------- ------    -------- ------   
  0.00D+00      0    1.00D-13      0    1.00D-12      0    1.00D-11      0
  1.00D-10      0    1.00D-09      0    1.00D-08      0    1.00D-07      0
  1.00D-06      1    1.00D-05      2    1.00D-04      3    1.00D-03      7
  1.00D-02     19    1.00D-01     71    1.00D+00     85    1.00D+01      2


  Caching 1-el integrals 
  atom                     1  - neighbor  & S                     1   10.000000000000000       exp AB    2.6799000000000021E-002   2.6799000000000021E-002
 zmins =     0.026799000    0.026799000 lprod =   2 range =        20.20 acc   0.10D-06
 sh     0.000000000
  Center:                     1  Radial Pts. & Wghts. 
    1        0.000001846           1.8881598E-17
    2        0.000014771           4.8337131E-15
    3        0.000049851           1.2388446E-13
    4        0.000118165           1.2374800E-12
    5        0.000230794           7.3762766E-12
    6        0.000398819           3.1718699E-11
    7        0.000633325           1.0887522E-10
    8        0.000945399           3.1689616E-10
    9        0.001346138           8.1321319E-10
   10        0.001846644           1.8895062E-09
   11        0.002458028           4.0512814E-09
   12        0.003191416           8.1287539E-09
   13        0.004057944           1.5426459E-08
   14        0.005068769           2.7919866E-08
   15        0.006235066           4.8508164E-08
   16        0.007568035           8.1333282E-08
   17        0.009078902           1.3217622E-07
   18        0.010778924           2.0894273E-07
   19        0.012679391           3.2225147E-07
   20        0.014791634           4.8613901E-07
   21        0.017127027           7.1889704E-07
   22        0.019696992           1.0440588E-06
   23        0.022513004           1.4915528E-06
   24        0.025586596           2.0990438E-06
   25        0.028929367           2.9134822E-06
   26        0.032552986           3.9928860E-06
   27        0.036469198           5.4083789E-06
   28        0.040689830           7.2465138E-06
   29        0.045226800           9.6119110E-06
   30        0.050092124           1.2630242E-05
   31        0.055297921           1.6451599E-05
   32        0.060856424           2.1254278E-05
   33        0.066779988           2.7249035E-05
   34        0.073081094           3.4683844E-05
   35        0.079772365           4.3849214E-05
   36        0.086866571           5.5084123E-05
   37        0.094376642           6.8782625E-05
   38        0.102315674           8.5401199E-05
   39        0.110696946           1.0546691E-04
   40        0.119533925           1.2958645E-04
   41        0.128840282           1.5845619E-04
   42        0.138629907           1.9287328E-04
   43        0.148916914           2.3374793E-04
   44        0.159715663           2.8211704E-04
   45        0.171040770           3.3915918E-04
   46        0.182907124           4.0621119E-04
   47        0.195329902           4.8478656E-04
   48        0.208324586           5.7659561E-04
   49        0.221906983           6.8356783E-04
   50        0.236093237           8.0787656E-04
   51        0.250899857           9.5196620E-04
   52        0.266343731           1.1185822E-03
   53        0.282442151           1.3108043E-03
   54        0.299212834           1.5320831E-03
   55        0.316673948           1.7862803E-03
   56        0.334844134           2.0777136E-03
   57        0.353742538           2.4112060E-03
   58        0.373388834           2.7921402E-03
   59        0.393803257           3.2265189E-03
   60        0.415006634           3.7210317E-03
   61        0.437020418           4.2831287E-03
   62        0.459866723           4.9211025E-03
   63        0.483568364           5.6441788E-03
   64        0.508148892           6.4626168E-03
   65        0.533632644           7.3878210E-03
   66        0.560044783           8.4324648E-03
   67        0.587411349           9.6106285E-03
   68        0.615759310           1.0937953E-02
   69        0.645116617           1.2431808E-02
   70        0.675512265           1.4111486E-02
   71        0.706976352           1.5998412E-02
   72        0.739540152           1.8116378E-02
   73        0.773236183           2.0491814E-02
   74        0.808098285           2.3154078E-02
   75        0.844161707           2.6135790E-02
   76        0.881463194           2.9473207E-02
   77        0.920041082           3.3206634E-02
   78        0.959935406           3.7380902E-02
   79        1.001188011           4.2045893E-02
   80        1.043842671           4.7257136E-02
   81        1.087945223           5.3076483E-02
   82        1.133543709           5.9572870E-02
   83        1.180688530           6.6823181E-02
   84        1.229432612           7.4913224E-02
   85        1.279831593           8.3938850E-02
   86        1.331944016           9.4007214E-02
   87        1.385831551           1.0523823E-01
   88        1.441559230           1.1776619E-01
   89        1.499195704           1.3174172E-01
   90        1.558813535           1.4733389E-01
   91        1.620489500           1.6473271E-01
   92        1.684304944           1.8415205E-01
   93        1.750346153           2.0583293E-01
   94        1.818704776           2.3004737E-01
   95        1.889478294           2.5710284E-01
   96        1.962770529           2.8734751E-01
   97        2.038692221           3.2117624E-01
   98        2.117361668           3.5903776E-01
   99        2.198905441           4.0144294E-01
  100        2.283459184           4.4897470E-01
  101        2.371168511           5.0229952E-01
  102        2.462190024           5.6218131E-01
  103        2.556692456           6.2949776E-01
  104        2.654857968           7.0525997E-01
  105        2.756883624           7.9063595E-01
  106        2.862983076           8.8697901E-01
  107        2.973388488           9.9586209E-01
  108        3.088352755           1.1191195E+00
  109        3.208152052           1.2588981E+00
  110        3.333088804           1.4177199E+00
  111        3.463495121           1.5985603E+00
  112        3.599736842           1.8049438E+00
  113        3.742218262           2.0410661E+00
  114        3.891387740           2.3119461E+00
  115        4.047744355           2.6236200E+00
  116        4.211845867           2.9833899E+00
  117        4.384318313           3.4001446E+00
  118        4.565867634           3.8847781E+00
  119        4.757293898           4.4507409E+00
  120        4.959508832           5.1147735E+00
  121        5.173557628           5.8978951E+00
  122        5.400646351           6.8267533E+00
  123        5.642176770           7.9354916E+00
  124        5.899791145           9.2683768E+00
  125        6.175430613           1.0883557E+01
  126        6.471412441           1.2858546E+01
  127        6.790533971           1.5298394E+01
  128        7.136215156           1.8348180E+01
  129        7.512698265           2.2212617E+01
  130        7.925334686           2.7187875E+01
  131        8.381008812           3.3715127E+01
  132        8.888786035           4.2474738E+01
  133        9.460943992           5.4560806E+01
  134       10.114696062           7.1825905E+01
  135       10.875252442           9.7618349E+01
  136       11.781697413           1.3852874E+02
  137       12.899508508           2.0913704E+02
  138       14.351433689           3.4771658E+02
  139       16.413046795           6.8719126E+02
  140       19.963682077           2.0480754E+03
     irreducible set of Lebedev Angular points ;
  0.009523809523810  1.000000000000000  0.000000000000000  0.000000000000000
  0.032142857142857  0.577350269189626  0.577350269189626  0.577350269189626
  0.028571428571429  0.459700843380983  0.000000000000000  0.888073833977115
   total no. of   reducible points:  38; test:  1.00000000
  0.012698412698413  1.000000000000000  0.000000000000000  0.000000000000000
  0.022574955908289  0.707106781186547  0.707106781186547  0.000000000000000
  0.021093750000000  0.577350269189626  0.577350269189626  0.577350269189626
  0.020173335537919  0.301511344577764  0.301511344577764  0.904534033733291
   total no. of   reducible points:  50; test:  1.00000000
  0.000513067179734  1.000000000000000  0.000000000000000  0.000000000000000
  0.016604069565742  0.707106781186547  0.707106781186547  0.000000000000000
 -0.029586038961039  0.577350269189626  0.577350269189626  0.577350269189626
  0.026576207082159  0.480384461415261  0.480384461415261  0.733799385705343
  0.016522170993716  0.320772648980776  0.000000000000000  0.947156221362588
   total no. of   reducible points:  74; test:  1.00000000
  0.011544011544012  1.000000000000000  0.000000000000000  0.000000000000000
  0.011943909085856  0.577350269189626  0.577350269189626  0.577350269189626
  0.011110555710603  0.369602846454150  0.369602846454150  0.852518311701268
  0.011876501294537  0.694354006602666  0.694354006602666  0.189063552885395
  0.011812303746904  0.374243039090341  0.000000000000000  0.927330657151172
   total no. of   reducible points:  86; test:  1.00000000
  0.003828270494937  1.000000000000000  0.000000000000000  0.000000000000000
  0.009793737512488  0.577350269189626  0.577350269189626  0.577350269189626
  0.008211737283191  0.185115635344736  0.185115635344736  0.965124035086594
  0.009942814891178  0.690421048382292  0.690421048382292  0.215957291845848
  0.009595471336071  0.395689473055942  0.395689473055942  0.828769981252592
  0.009694996361663  0.478369028812150  0.000000000000000  0.878158910604066
   total no. of   reducible points: 110; test:  1.00000000
  0.000599631368862  1.000000000000000  0.000000000000000  0.000000000000000
  0.007372999718621  0.707106781186547  0.707106781186547  0.000000000000000
  0.007210515360144  0.577350269189626  0.577350269189626  0.577350269189626
  0.007116355493118  0.676441040011426  0.676441040011426  0.291298882209527
  0.006753829486314  0.417496122796545  0.417496122796545  0.807089818359583
  0.007574394159054  0.157467667203908  0.157467667203908  0.974888643677173
  0.006991087353303  0.140355381171318  0.449332832326956  0.882270011260323
   total no. of   reducible points: 146; test:  1.00000000
  0.005544842902037  1.000000000000000  0.000000000000000  0.000000000000000
  0.006071332770671  0.707106781186547  0.707106781186547  0.000000000000000
  0.006383674773515  0.577350269189626  0.577350269189626  0.577350269189626
  0.005183387587748  0.255125262111413  0.255125262111413  0.932642590312691
  0.006317929009814  0.674360146036277  0.674360146036277  0.300793595137701
  0.006201670006589  0.431891069671941  0.431891069671941  0.791795559393492
  0.005477143385137  0.261393136033599  0.000000000000000  0.965232421976448
  0.005968383987681  0.499045316179604  0.144663074432512  0.854415804684659
   total no. of   reducible points: 170; test:  1.00000000
  0.001782340447245  1.000000000000000  0.000000000000000  0.000000000000000
  0.005716905949977  0.707106781186547  0.707106781186547  0.000000000000000
  0.005573383178849  0.577350269189626  0.577350269189626  0.577350269189626
  0.005608704082588  0.671297344269523  0.671297344269523  0.314196994182586
  0.005158237711805  0.289246562757544  0.289246562757544  0.912509096867474
  0.005518771467274  0.444693317871744  0.444693317871744  0.777493219314767
  0.004106777028169  0.129933544765007  0.129933544765007  0.982972302707253
  0.005051846064615  0.345770219761128  0.000000000000000  0.938319218137592
  0.005530248916233  0.159041710538353  0.836036015482459  0.525118572443642
   total no. of   reducible points: 194; test:  1.00000000
 -0.055226399197273  1.000000000000000  0.000000000000000  0.000000000000000
  0.004450274607445  0.577350269189626  0.577350269189626  0.577350269189626
  0.004496841067921  0.449204468739761  0.449204468739761  0.772289253148364
  0.005049153450479  0.252041949021020  0.252041949021020  0.934317778845812
  0.003976408018052  0.698190665844724  0.698190665844724  0.158302205463478
  0.004401400650381  0.658740524346096  0.658740524346096  0.363485684956727
  0.017245443505444  0.040385440500977  0.040385440500977  0.998367683967727
  0.004231083095357  0.582384230971558  0.000000000000000  0.812913653173365
  0.005198069864064  0.354587739051869  0.000000000000000  0.935022745880593
  0.004695720972569  0.227218180899819  0.486466153588665  0.843636521068894
   total no. of   reducible points: 230; test:  1.00000000
 -0.001313769127327  1.000000000000000  0.000000000000000  0.000000000000000
 -0.002522728704859  0.707106781186547  0.707106781186547  0.000000000000000
  0.004186853881701  0.577350269189626  0.577350269189626  0.577350269189626
  0.005315167977811  0.703937339158548  0.703937339158548  0.094575076403713
  0.004047142377086  0.101252624857241  0.101252624857241  0.989694807462905
  0.004112482394407  0.464744872642054  0.464744872642054  0.753673939250816
  0.003595584899759  0.327742065497163  0.327742065497163  0.886098344997499
  0.004256131351428  0.662033866369997  0.662033866369997  0.351315128564633
  0.004229582700647  0.850650808352040  0.000000000000000  0.525731112119134
  0.004080914225781  0.323348454269290  0.115311201100970  0.939227929749916
  0.004071467593831  0.231479015871260  0.524493924092236  0.819343388819120
   total no. of   reducible points: 266; test:  1.00000000
  0.000854591172513  1.000000000000000  0.000000000000000  0.000000000000000
  0.003599119285026  0.577350269189626  0.577350269189626  0.577350269189626
  0.003449788424306  0.351564034557011  0.351564034557011  0.867643624544083
  0.003604822601420  0.656632941021961  0.656632941021961  0.371034178384821
  0.003576729661743  0.472905413258100  0.472905413258100  0.743452042987556
  0.002352101413689  0.096183085226148  0.096183085226148  0.990705621379408
  0.003108953122414  0.221964523629418  0.221964523629418  0.949454317226443
  0.003650045807677  0.701176641608955  0.701176641608955  0.129238672710514
  0.002982344963172  0.264415288706066  0.000000000000000  0.964408914879206
  0.003600820932216  0.571895589187896  0.000000000000000  0.820326419827759
  0.003571540554273  0.251003475177047  0.800072749407395  0.544867737258077
  0.003392312205006  0.123354853258333  0.412772408316853  0.902442529533000
   total no. of   reducible points: 302; test:  1.00000000
  0.003006796749454  1.000000000000000  0.000000000000000  0.000000000000000
  0.003050627745651  0.577350269189626  0.577350269189626  0.577350269189626
  0.001621104600289  0.706896546391232  0.706896546391232  0.024383301669356
  0.003005701484902  0.479468262571203  0.479468262571203  0.734996850587746
  0.002990992529654  0.192753315487802  0.192753315487802  0.962129055136014
  0.002982170644108  0.693035796132712  0.693035796132712  0.198501311223365
  0.002721564237311  0.360830211552009  0.360830211552009  0.860001812127547
  0.003033513795811  0.649848616149617  0.649848616149617  0.394199888605839
  0.003007949555219  0.193294501323034  0.000000000000000  0.981140782843257
  0.002881964603055  0.380049491989930  0.000000000000000  0.924966152698679
  0.002958357626536  0.289955882549957  0.793453785658232  0.535123047718276
  0.003036020026407  0.096841214551040  0.828080150668686  0.552182074349399
  0.002832187403926  0.183343464704166  0.907465826530513  0.378009189874487
   total no. of   reducible points: 350; test:  1.00000000
  0.000526589796822  1.000000000000000  0.000000000000000  0.000000000000000
  0.002548219972003  0.707106781186547  0.707106781186547  0.000000000000000
  0.002512317418927  0.577350269189626  0.577350269189626  0.577350269189626
  0.002530403801186  0.690934630750911  0.690934630750911  0.212646824707552
  0.002014279020919  0.177483605460916  0.177483605460916  0.967987158791473
  0.002501725168403  0.491434263778475  0.491434263778475  0.719016501040843
  0.002513267174598  0.645666470742426  0.645666470742426  0.407712664897770
  0.002302694782227  0.286128901030764  0.286128901030764  0.914472801120872
  0.001462495621595  0.075680843671780  0.075680843671780  0.994255912631278
  0.002445373437313  0.392725976336800  0.392725976336800  0.831584400419232
  0.002417442375639  0.881813287779429  0.000000000000000  0.471598691151316
  0.001910951282180  0.977642811118265  0.000000000000000  0.210272522857307
  0.002416930044325  0.205482369640304  0.868946032287241  0.450233038258263
  0.002512236854563  0.590515704892527  0.799927854385729  0.106801826075805
  0.002496644054553  0.555015236107681  0.771746262691590  0.310428403516654
  0.002236607760438  0.937180985855372  0.334436314534346  0.099217696364292
   total no. of   reducible points: 434; test:  1.00000000
  0.000309512129531  1.000000000000000  0.000000000000000  0.000000000000000
  0.001852379698597  0.577350269189626  0.577350269189626  0.577350269189626
  0.001871790639278  0.704095493822747  0.704095493822747  0.092190407076898
  0.001858812585438  0.680774406645524  0.680774406645524  0.270356088359165
  0.001852028828296  0.637254693925875  0.637254693925875  0.433373868777154
  0.001846715956151  0.504441970780036  0.504441970780036  0.700768575373573
  0.001818471778163  0.421576178401097  0.421576178401097  0.802836877335274
  0.001749564657281  0.331792073647212  0.331792073647212  0.883078727934133
  0.001617210647254  0.238473670142189  0.238473670142189  0.941414158220403
  0.001384737234852  0.145903644915776  0.145903644915776  0.978480583762694
  0.000976433116505  0.060950341155072  0.060950341155072  0.996278129754016
  0.001857161196774  0.611684344200988  0.000000000000000  0.791101929626902
  0.001705153996396  0.396475534819986  0.000000000000000  0.918045287711454
  0.001300321685886  0.172478200990772  0.000000000000000  0.985013335028002
  0.001842866472905  0.561026380862206  0.351828092773352  0.749310611904116
  0.001802658934377  0.474239284255198  0.263471665593795  0.840047488359050
  0.001849830560444  0.598412649788538  0.181664084036021  0.780320742479920
  0.001713904507107  0.379103540769556  0.172079522565688  0.909213475092374
  0.001555213603397  0.277867319058624  0.082130215819325  0.957102074310073
  0.001802239128009  0.503356427107512  0.089992058420749  0.859379855890721
   total no. of   reducible points: 590; test:  1.00000000
  0.000219294208818  1.000000000000000  0.000000000000000  0.000000000000000
  0.001436433617319  0.707106781186547  0.707106781186547  0.000000000000000
  0.001421940344336  0.577350269189626  0.577350269189626  0.577350269189626
  0.000679812351105  0.050872044105024  0.050872044105024  0.997408677652823
  0.000991318423529  0.122819879017883  0.122819879017883  0.984799753572301
  0.001180207833239  0.202689081440879  0.202689081440879  0.958036675983391
  0.001296599602081  0.284774515646429  0.284774515646429  0.915317950483155
  0.001365871427428  0.365671907897803  0.365671907897803  0.855901928697887
  0.001402988604775  0.442826488671347  0.442826488671347  0.779621319527635
  0.001418645563596  0.514061962724974  0.514061962724974  0.686644447264154
  0.001421376741852  0.630640121916680  0.630640121916680  0.452311920313658
  0.001423996475491  0.671688333202261  0.671688333202261  0.312521305001653
  0.001431554042179  0.697979268533688  0.697979268533688  0.160155803498829
  0.000925440149987  0.144686567419531  0.000000000000000  0.989477537495599
  0.001250239995054  0.339026347541122  0.000000000000000  0.940776878793759
  0.001394365843329  0.533580465126351  0.000000000000000  0.845749305193653
  0.001127089094672  0.069440243933494  0.235518789424233  0.969385863498432
  0.001345753760911  0.226900410952946  0.410218247404573  0.883310360522113
  0.001424957283317  0.080255746077753  0.621430241748161  0.779348105702661
  0.001261523341238  0.146799952789657  0.324528434571739  0.934414827052402
  0.001392547106053  0.157150776982473  0.522448218969663  0.838064133458312
  0.001418761677878  0.236570299315725  0.601754663408956  0.762840624604670
  0.001338366684480  0.077148158667657  0.434657551614116  0.897285336132833
  0.001393700862676  0.306293666621073  0.490882658903762  0.815609223203975
  0.001415914757467  0.382247737952479  0.564876814909950  0.731300793659766
   total no. of   reducible points: 770; test:  1.00000000
  0.000143829419053  1.000000000000000  0.000000000000000  0.000000000000000
  0.001125772288287  0.577350269189626  0.577350269189626  0.577350269189626
  0.000494802934195  0.042929635453413  0.042929635453413  0.998155345023847
  0.000735799010913  0.105142685408640  0.105142685408640  0.988883224354686
  0.000888913277130  0.175002486762309  0.175002486762309  0.968890220434707
  0.000988834783892  0.247765337965026  0.247765337965026  0.936602730407163
  0.001053299681709  0.320656712395596  0.320656712395596  0.891267942647606
  0.001092778807015  0.391652074984998  0.391652074984998  0.832596723702352
  0.001114389394063  0.459082587418762  0.459082587418762  0.760582905315251
  0.001123724788052  0.521456388841586  0.521456388841586  0.675400969108414
  0.001125239325244  0.625317024465420  0.625317024465420  0.466858905695743
  0.001126153271816  0.663792674452317  0.663792674452317  0.344613654237438
  0.001130286931124  0.691041039849830  0.691041039849830  0.211954151850184
  0.001134986534364  0.705290700745776  0.705290700745776  0.071624401449956
  0.000682336792711  0.123668676265799  0.000000000000000  0.992323565431490
  0.000945415816045  0.294077711446839  0.000000000000000  0.955781512496548
  0.001074429975386  0.469775384920765  0.000000000000000  0.882785980701182
  0.001129300086569  0.633456324113957  0.000000000000000  0.773778447257375
  0.000843688450090  0.059740486141813  0.202912875277752  0.977372722845310
  0.001075255720449  0.137576040847364  0.460262194248405  0.877058461865803
  0.001108577236864  0.339101652633629  0.503067399966204  0.794942299964208
  0.000956647532378  0.127167519143982  0.281760642244213  0.951020169374390
  0.001080663250717  0.269312074041351  0.433156129172016  0.860143461601762
  0.001126797131196  0.141978645260192  0.625616735858081  0.767102186220558
  0.001022568715358  0.067092846007383  0.379839521685916  0.922616110730809
  0.001108960267713  0.070577381832562  0.551750542142352  0.831017552413474
  0.001122790653436  0.278388847788215  0.602961915615919  0.747620610834086
  0.001032401847117  0.197957893891741  0.358960632958910  0.912118378409121
  0.001107249382284  0.208730706110327  0.534866643813548  0.818748536281022
  0.001121780048520  0.405512213787284  0.567499754607437  0.716591845467024
   total no. of   reducible points: 974; test:  1.00000000
  qrot: 

              1        2        3      
    1    1.0000   0.0000   0.0000
    2    0.0000   1.0000   0.0000
    3    0.0000   0.0000   1.0000
  me                     0   done genpts
  me                     1   done genpts
  me                     4   done genpts
  me                     5   done genpts
  me                     6   done genpts
  me                     7   done genpts
  me                     2   done genpts
  me                     3   done genpts
  me                     0   done uprt
  me                     1   done uprt
  me                     2   done uprt
  me                     3   done uprt
  me                     4   done uprt
  me                     5   done uprt
  me                     6   done uprt
  me                     7   done uprt
  me                     0  done mem
  me                     1  done mem
  me                     2  done mem
  me                     3  done mem
  me                     4  done mem
  me                     5  done mem
  me                     6  done mem
  me                     7  done mem
  dftinpanae: itol2e                     8  iaoacc                    14  tol_rho    1.0000000000000000E-010

            General Information
            -------------------
          SCF calculation type: DFT
          Wavefunction type:  spin polarized.
          No. of atoms     :     1
          No. of electrons :    33
           Alpha electrons :    18
            Beta electrons :    15
          Charge           :     0
          Spin multiplicity:     4
          Use of symmetry is: off; symmetry adaption is: off
          Maximum number of iterations:  50
          AO basis - number of functions:    69
                     number of shells:    19
          Convergence on energy requested:  1.00D-06
          Convergence on density requested:  1.00D-05
          Convergence on gradient requested:  5.00D-04

              XC Information
              --------------
                     Hartree-Fock (Exact) Exchange  1.000          
                     LC-wPBE(h)Exchange Functional  1.000          
            Perdew 1991 LDA Correlation Functional  1.000 local    
           PerdewBurkeErnz. Correlation Functional  1.000 non-local

           Range-Separation Parameters        
           ---------------------------
           Alpha           :  0.00
           Beta            :  1.00
           Gamma           :  0.26
           Short-Range HF  :     F

             Grid Information
             ----------------
          Grid used for XC integration:  fine      
          Radial quadrature: Mura-Knowles        
          Angular quadrature: Lebedev. 
          Tag              B.-S. Rad. Rad. Pts. Rad. Cut. Ang. Pts.
          ---              ---------- --------- --------- ---------
          As                  1.15      140          11.0       974
          Grid pruning is: on 
          Number of quadrature shells:   140
          Spatial weights used:  Erf1

          Convergence Information
          -----------------------
          Convergence aids based upon iterative change in 
          total energy or number of iterations. 
          Levelshifting, if invoked, occurs when the 
          HOMO/LUMO gap drops below (HL_TOL):  1.00D-02
          DIIS, if invoked, will attempt to extrapolate 
          using up to (NFOCK): 10 stored Fock matrices.

                    Damping( 0%)  Levelshifting(0.5)       DIIS
                  --------------- ------------------- ---------------
          dE  on:    start            ASAP                start   
          dE off:    2 iters         50 iters            50 iters 


      Screening Tolerance Information
      -------------------------------
          Density screening/tol_rho:  1.00D-10
          AO Gaussian exp screening on grid/accAOfunc:  14
          CD Gaussian exp screening on grid/accCDfunc:  20
          XC Gaussian exp screening on grid/accXCfunc:  20
          Schwarz screening/accCoul:  1.00D-08



                         Geometry "geometry" -> "geometry"
                         ---------------------------------

 Output coordinates in angstroms (scale by  1.889725989 to convert to a.u.)

  No.       Tag          Charge          X              Y              Z
 ---- ---------------- ---------- -------------- -------------- --------------
    1 As                  33.0000     0.00000000     0.00000000     0.00000000

      Atomic Mass 
      ----------- 

      As                74.921600


 Effective nuclear repulsion energy (a.u.)       0.0000000000

            Nuclear Dipole moment (a.u.) 
            ----------------------------
        X                 Y               Z
 ---------------- ---------------- ----------------
     0.0000000000     0.0000000000     0.0000000000

  
  CAM type calculations without CDFIT are
  only available with the direct option.
  Forcing Direct SCF
  


     <<<<<<    Before call to DFT_SCF.    >>>>>>
     <<<<<< date:  May  8  time: 11:45:18 >>>>>>


 Setting tolerance for linear dependence to 1.00D-05




 Setting tolerance for linear dependence to 1.00D-05

 Setting tolerance for linear dependence to 1.00D-05

 Setting tolerance for linear dependence to 1.00D-05

 Setting tolerance for linear dependence to 1.00D-05
 Setting tolerance for linear dependence to 1.00D-05
 Setting tolerance for linear dependence to 1.00D-05
 Setting tolerance for linear dependence to 1.00D-05
  lindep tolerance =    1.0000000000000001E-005
  lindep tolerance =    1.0000000000000001E-005
  lindep tolerance =    1.0000000000000001E-005
  lindep tolerance =    1.0000000000000001E-005
  lindep tolerance =    1.0000000000000001E-005
  lindep tolerance =    1.0000000000000001E-005
  lindep tolerance =    1.0000000000000001E-005
  lindep tolerance =    1.0000000000000001E-005


     <<<<<<    Before 3c-2e initialize.   >>>>>>
     <<<<<< date:  May  8  time: 11:45:18 >>>>>>


 Setting fock-build task_bf   :      -1
                    maxquartet:   10000
                    maxeri    :  129600
                    maxscr    :       0
                    intacc    : 0.0D+00
                    denscreen : T
                    dentol    : 1.0D-06


      Superposition of Atomic Density Guess
      -------------------------------------

 Sum of atomic energies:       -2234.18057931

      Non-variational initial energy
      ------------------------------

 Total energy =   -2233.914072
 1-e energy   =   -3114.436799
 2-e energy   =     880.522728
 HOMO         =      -0.161751
 LUMO         =      -0.161751


 Setting fock-build task_bf   :      -1
                    maxquartet:   10000
                    maxeri    :  129600
                    maxscr    :       0
                    intacc    : 0.0D+00
                    denscreen : T
                    dentol    : 1.0D-06


 Wrote molecular orbitals to ./as.movecs

  WARNING: movecs_in_org=atomic not equal to movecs_in=./as.movecs
   Time after variat. SCF:      7.1

 Setting fock-build task_bf   :      -1
                    maxquartet:   10000
                    maxeri    :  129600
                    maxscr    :       0
                    intacc    : 0.0D+00
                    denscreen : T
                    dentol    : 1.0D-06

   Time prior to 1st pass:      7.1


     <<<<<<      Before SCF iter loop.    >>>>>>
     <<<<<< date:  May  8  time: 11:45:25 >>>>>>

           DAMPING=T LEVELSHIFTING=F DIISING=T
          itol2e= 8 iAOacc=12 iXCacc=20


     <<<<<<            calling 1-e int    >>>>>>
     <<<<<< date:  May  8  time: 11:45:25 >>>>>>

    Kinetic Matrix Time:          0.0s

           Kinetic energy =   2233.539715591169

    Potential Matrix Time:          0.0s


     <<<<<<    Before call to GETVXC.     >>>>>>
     <<<<<< date:  May  8  time: 11:45:25 >>>>>>



     <<<<<<    Before call to fock_2e.    >>>>>>
     <<<<<< date:  May  8  time: 11:45:25 >>>>>>



     <<<<<<     After call to fock_2e.    >>>>>>
     <<<<<< date:  May  8  time: 11:45:27 >>>>>>

    Fock_2e Build Time:          1.8s
  *** grid_quadv0:                    calc_type:                    1
  *** grid_quadv0:                    grid_written: F
  *** grid_quadv0:                    grad: T
  *** grid_quadv0:                    kske: F
  *** grid_quadv0:                    kslap: F
  *** grid_quadv0:                    do_scf: T
  *** grid_quadv0:                    fde_option:                    0
  *** grid_quadv0:                    calc_type:                    1
  *** grid_quadv0:                    grid_written: F
  *** grid_quadv0:                    grad: T
  *** grid_quadv0:                    kske: F
  *** grid_quadv0:                    calc_type:                    1
  *** grid_quadv0:                    grid_written: F
  *** grid_quadv0:                    grad: T
  *** grid_quadv0:                    kske: F
  *** grid_quadv0:                    kslap: F
  *** grid_quadv0:                    do_scf: T
  *** grid_quadv0:                    calc_type:                    1
  *** grid_quadv0:                    grid_written: F
  *** grid_quadv0:                    grad: T
  *** grid_quadv0:                    kske: F
  *** grid_quadv0:                    kslap: F
  *** grid_quadv0:                    do_scf: T
  *** grid_quadv0:                    fde_option:                    0
  *** grid_quadv0:                    n_per_rec:                 3070
  *** grid_quadv0:                    n_per_rec:                 3070
  *** grid_quadv0:                    kslap: F
  *** grid_quadv0:                    do_scf: T
  *** grid_quadv0:                    fde_option:                    0
  *** grid_quadv0:                    n_per_rec:                 3070
  *** grid_quadv0:                    calc_type:                    1
  *** grid_quadv0:                    grid_written: F
  *** grid_quadv0:                    grad: T
  *** grid_quadv0:                    kske: F
  *** grid_quadv0:                    kslap: F
  *** grid_quadv0:                    do_scf: T
  *** grid_quadv0:                    fde_option:                    0
  *** grid_quadv0:                    n_per_rec:                 3070
  *** grid_quadv0:                    calc_type:                    1
  *** grid_quadv0:                    grid_written: F
  *** grid_quadv0:                    grad: T
  *** grid_quadv0:                    kske: F
  *** grid_quadv0:                    kslap: F
  *** grid_quadv0:                    do_scf: T
  *** grid_quadv0:                    fde_option:                    0
  *** grid_quadv0:                    n_per_rec:                 3070
  *** grid_quadv0:                    calc_type:                    1
  *** grid_quadv0:                    grid_written: F
  *** grid_quadv0:                    grad: T
  *** grid_quadv0:                    kske: F
  *** grid_quadv0:                    kslap: F
  *** grid_quadv0:                    do_scf: T
  *** grid_quadv0:                    fde_option:                    0
  *** grid_quadv0:                    n_per_rec:                 3070
  *** grid_quadv0:                    calc_type:                    1
  *** grid_quadv0:                    grid_written: F
  *** grid_quadv0:                    grad: T
  *** grid_quadv0:                    kske: F
  *** grid_quadv0:                    kslap: F
  *** grid_quadv0:                    do_scf: T
  *** grid_quadv0:                    fde_option:                    0
  *** grid_quadv0:                    n_per_rec:                 3070
  *** grid_quadv0:                    fde_option:                    0
  *** grid_quadv0:                    n_per_rec:                 3070
   0: nuse=   8 avail= 12500000Mb on .
   1: nuse=   8 avail= 12500000Mb on .
   2: nuse=   8 avail= 12500000Mb on .
   3: nuse=   8 avail= 12500000Mb on .
   4: nuse=   8 avail= 12500000Mb on .
   5: nuse=   8 avail= 12500000Mb on .
   6: nuse=   8 avail= 12500000Mb on .
   7: nuse=   8 avail= 12500000Mb on .
 l_cube input   11.00

  atom type   l_cube   no. cubes   segmts   rad   sub
 ----------- -------- ----------- -------- ----- -----
        1     13.33        34         3      20     8

 Grid_pts file          = ./as.gridpts.0
 Record size in doubles =  12289        No. of grid_pts per rec  =   3070
 Max. records in memory =      8        Max. recs in file   = 126656358

 me   0 NQTOTC NQ/cube   12077     754
 me   1 NQTOTC NQ/cube    7877    3938
 me   2 NQTOTC NQ/cube    7283    2427
 me   3 NQTOTC NQ/cube    7673    3836
 me   4 NQTOTC NQ/cube    6562    2187
 me   5 NQTOTC NQ/cube    6408    3204
 me   6 NQTOTC NQ/cube    7037    3518
 me   7 NQTOTC NQ/cube    5975    1493

 XC quadr. integrated density :      33.000000 npts:    60838 nctrs:        1

    Fock_xc Build Time:          0.1s


     <<<<<<    Before call to GETVCOUL.   >>>>>>
     <<<<<< date:  May  8  time: 11:45:27 >>>>>>



     <<<<<<    End of parallel region.    >>>>>>
     <<<<<< date:  May  8  time: 11:45:27 >>>>>>

    Total Fock Matrix Build Time:          2.0s
 Etnew, Ecore, Ecoul, Exc(1), Exc(2), Totsic:   -2235.5088589497877       -3112.1053059803785        959.29414394840705       -82.697696917816486        0.0000000000000000        0.0000000000000000     
  delta =   -2235.5088589497877     
  delta =   -2235.5088589497877     
  delta =   -2235.5088589497877     
  delta =   -2235.5088589497877     


         Total DFT energy =    -2235.508858949788
      One electron energy =    -3112.105305980378
           Coulomb energy =      959.294143948407
    Exchange-Corr. energy =      -82.697696917816
 Nuclear repulsion energy =        0.000000000000

 Numeric. integr. density =       32.999999999976

  delta =   -2235.5088589497877     
  delta =   -2235.5088589497877     
  delta =   -2235.5088589497877     
  delta =   -2235.5088589497877     
     Total iterative time =     10.1s




     <<<<<<        calling diis driver    >>>>>>
     <<<<<< date:  May  8  time: 11:45:27 >>>>>>

 nhist                     1  pulay matrix 
   0.0000E+00
  -1.0000E+00   7.7033E-01


     <<<<<<         called diis driver    >>>>>>
     <<<<<< date:  May  8  time: 11:45:27 >>>>>>


 global array: fock transf[1:69,1:69],  handle: -940 

            1           2           3           4           5           6  
       ----------- ----------- ----------- ----------- ----------- -----------
   1       8.61247   -14.40801    -0.00000    -0.00000     0.00000     7.00119
   2     -14.40801    44.59525    -0.00000     0.00000     0.00000   -30.13151
   3      -0.00000    -0.00000     2.34608     0.00000     0.00000     0.00000
   4      -0.00000     0.00000     0.00000     2.34608     0.00000    -0.00000
   5       0.00000     0.00000     0.00000     0.00000     2.34608    -0.00000
   6       7.00119   -30.13151     0.00000    -0.00000    -0.00000    24.69930
   7      -0.00000    -0.00000     0.63006    -0.18819    -0.31768    -0.00000
   8      -0.00000    -0.00000     0.09751     0.69081    -0.21584    -0.00000
   9      -0.00000     0.00000    -0.35613    -0.14380    -0.62114     0.00000
  10      -0.17866     0.94493    -0.00000     0.00000     0.00000    -1.21505
  11      -0.00000    -0.00000    -0.00000    -0.00000    -0.00000    -0.00000
  12      -0.24761     1.27210    -0.00000     0.00000     0.00000    -1.20438
  13       0.00000    -0.00000     0.00000     0.00000    -0.00000    -0.00000
  14       0.00000     0.00000     0.00000    -0.00000    -0.00000     0.00000
  15       0.00000     0.00000    -0.00000    -0.00000     0.00000    -0.00000
  16      -0.00000    -0.00000    -0.00000    -0.00000    -0.00000    -0.00000
  17       0.00000    -0.00000     0.00000    -0.00000     0.00000    -0.00000
  18      -0.00000     0.00000    -0.00000     0.00000    -0.00000     0.00000
  19       0.00000    -0.00000     0.05998    -0.09201     0.02344    -0.00000
  20       0.00000    -0.00000    -0.06213    -0.05900    -0.07260     0.00000
  21      -0.00000     0.00000    -0.07179    -0.02580     0.08241     0.00000
  22       0.00000     0.00000     0.00000     0.00000    -0.00000    -0.00000
  23      -0.00000    -0.00000    -0.00000     0.00000    -0.00000     0.00000
  24       0.00000    -0.00000    -0.00000     0.00000     0.00000    -0.00000
  25       0.00000    -0.00000    -0.18345    -0.28762    -0.26231     0.00000
  26      -0.00000     0.00000    -0.08369     0.31233    -0.28395    -0.00000
  27      -0.00000    -0.00000     0.38016    -0.07003    -0.18908    -0.00000
  28      -0.00000     0.00000    -0.00000    -0.00000    -0.00000     0.00000
  29      -0.00000     0.00000     0.00000     0.00000     0.00000     0.00000
  30       0.00000    -0.00000     0.00000    -0.00000     0.00000    -0.00000
  31      -0.00000    -0.00000     0.00000     0.00000     0.00000    -0.00000
  32       0.00000     0.00000    -0.00000     0.00000     0.00000    -0.00000
  33       0.00000    -0.00000     0.00000    -0.00000     0.00000     0.00000
  34      -0.00000    -0.00000     0.04466    -0.02288     0.02062    -0.00000
  35      -0.00000     0.00000    -0.00926    -0.04461    -0.02945    -0.00000
  36      -0.00000    -0.00000     0.02938     0.02072    -0.04063    -0.00000
  37       0.04198     0.02542    -0.00000    -0.00000     0.00000    -0.27664
  38      -0.00000     0.00000    -0.00000    -0.00000    -0.00000    -0.00000
  39      -0.00000     0.00000    -0.00000     0.00000    -0.00000     0.00000
  40      -0.00000     0.00000    -0.00000    -0.00000    -0.00000     0.00000
  41       0.00000     0.00000    -0.00000    -0.00000     0.00000     0.00000
  42       0.00000    -0.00000     0.00000     0.00000    -0.00000     0.00000
  43      -0.00000     0.00000    -0.02128     0.03269    -0.01438    -0.00000
  44       0.00000    -0.00000    -0.03283    -0.02450    -0.00711    -0.00000
  45      -0.00000    -0.00000     0.01406    -0.00771    -0.03835     0.00000
  46       0.00000    -0.00000     0.00000     0.00000     0.00000    -0.00000
  47      -0.00000    -0.00000    -0.00000    -0.00000     0.00000    -0.00000
  48      -0.00000     0.00000    -0.00000    -0.00000    -0.00000    -0.00000
  49      -0.00000    -0.00000    -0.00000     0.00000     0.00000     0.00000
  50      -0.00000    -0.00000     0.00000     0.00000     0.00000     0.00000
  51       0.14018    -0.37790    -0.00000     0.00000     0.00000     0.12995
  52      -0.00000    -0.00000     0.00627     0.01543    -0.00112     0.00000
  53      -0.00000    -0.00000    -0.01140     0.00380    -0.01158    -0.00000
  54      -0.00000    -0.00000     0.01045    -0.00512    -0.01197     0.00000
  55       0.02775    -0.20410    -0.00000     0.00000     0.00000     0.21236
  56      -0.00000    -0.00000    -0.02630     0.01130     0.02667     0.00000
  57       0.00000    -0.00000    -0.01715     0.02296    -0.02663     0.00000
  58      -0.00000     0.00000    -0.02334    -0.02959    -0.01048     0.00000
  59       0.00000     0.00000    -0.00000     0.00000     0.00000     0.00000
  60      -0.00000    -0.00000    -0.00000     0.00000    -0.00000     0.00000
  61       0.00000     0.00000     0.01248    -0.01711     0.03610    -0.00000
  62       0.00000     0.00000    -0.03766     0.00758     0.01661    -0.00000
  63       0.00000    -0.00000    -0.01332    -0.03744    -0.01313     0.00000
  64      -0.01724     0.21357    -0.00000    -0.00000    -0.00000    -0.19616
  65      -0.22209     0.68795     0.00000    -0.00000    -0.00000    -0.41005
  66      -0.00000     0.00000    -0.01587    -0.01656    -0.02810    -0.00000
  67       0.00000     0.00000    -0.01888    -0.02082     0.02293    -0.00000
  68      -0.00000    -0.00000     0.02660    -0.02465    -0.00049     0.00000
  69      -0.07471     0.16952     0.00000    -0.00000    -0.00000    -0.07370

            7           8           9          10          11          12  
       ----------- ----------- ----------- ----------- ----------- -----------
   1      -0.00000    -0.00000    -0.00000    -0.17866    -0.00000    -0.24761
   2      -0.00000    -0.00000     0.00000     0.94493    -0.00000     1.27210
   3       0.63006     0.09751    -0.35613    -0.00000    -0.00000    -0.00000
   4      -0.18819     0.69081    -0.14380     0.00000    -0.00000     0.00000
   5      -0.31768    -0.21584    -0.62114     0.00000    -0.00000     0.00000
   6      -0.00000    -0.00000     0.00000    -1.21505    -0.00000    -1.20438
   7       1.02703     0.00000     0.00000     0.00000     0.00000     0.00000
   8       0.00000     1.02703    -0.00000     0.00000     0.00000    -0.00000
   9       0.00000    -0.00000     1.02703     0.00000     0.00000     0.00000
  10       0.00000     0.00000     0.00000     0.62710     0.00000     0.85947
  11       0.00000     0.00000     0.00000     0.00000     1.26361    -0.00000
  12       0.00000    -0.00000     0.00000     0.85947    -0.00000     2.72575
  13      -0.00000    -0.00000     0.00000     0.00000    -0.00000    -0.00000
  14       0.00000    -0.00000     0.00000     0.00000     0.00000     0.00000
  15       0.00000     0.00000     0.00000    -0.00000     0.00000    -0.00000
  16      -0.00000     0.00000     0.00000     0.00000     0.00000     0.00000
  17      -0.00000    -0.00000    -0.00000     0.00000     0.00000     0.00000
  18      -0.00000     0.00000     0.00000     0.00000     0.00000     0.00000
  19       0.21390    -0.28173    -0.10184    -0.00000     0.00000     0.00000
  20      -0.02236    -0.13980     0.33979    -0.00000     0.00000     0.00000
  21      -0.29874    -0.19126    -0.09835     0.00000     0.00000     0.00000
  22      -0.00000    -0.00000     0.00000    -0.00000    -0.00000    -0.00000
  23       0.00000     0.00000     0.00000     0.00000    -0.00000    -0.00000
  24      -0.00000    -0.00000    -0.00000     0.00000    -0.38575     0.00000
  25       0.04330    -0.31666     0.53373     0.00000    -0.00000     0.00000
  26      -0.04217     0.53229     0.31923    -0.00000    -0.00000    -0.00000
  27       0.61916     0.05840    -0.01558    -0.00000    -0.00000    -0.00000
  28      -0.00000     0.00000     0.00000    -0.00000     0.00000     0.00000
  29      -0.00000    -0.00000    -0.00000     0.00000    -0.00000     0.00000
  30      -0.00000    -0.00000    -0.00000    -0.00000     0.00000    -0.00000
  31      -0.00000     0.00000    -0.00000    -0.00000    -0.00000    -0.00000
  32      -0.00000    -0.00000     0.00000     0.00000    -0.00000    -0.00000
  33       0.00000    -0.00000     0.00000    -0.00000    -0.00000     0.00000
  34       0.06573    -0.04036    -0.06454     0.00000    -0.00000    -0.00000
  35       0.03026    -0.06439     0.07108    -0.00000    -0.00000    -0.00000
  36       0.06985     0.06587     0.02994     0.00000     0.00000     0.00000
  37       0.00000     0.00000    -0.00000     0.25540    -0.00000     0.02365
  38       0.00000    -0.00000    -0.00000    -0.00000     0.00000     0.00000
  39       0.00000     0.00000     0.00000    -0.00000    -0.00000     0.00000
  40       0.00000    -0.00000    -0.00000    -0.00000     0.00000     0.00000
  41      -0.00000     0.00000    -0.00000    -0.00000    -0.00000    -0.00000
  42       0.00000     0.00000    -0.00000    -0.00000    -0.00000    -0.00000
  43       0.02485    -0.03914    -0.01958    -0.00000    -0.00000    -0.00000
  44       0.02290     0.03082    -0.03254     0.00000     0.00000     0.00000
  45      -0.03729    -0.00716    -0.03303     0.00000     0.00000    -0.00000
  46      -0.00000    -0.00000     0.00000     0.00000    -0.00000     0.00000
  47      -0.00000    -0.00000    -0.00000     0.00000    -0.00000    -0.00000
  48       0.00000    -0.00000    -0.00000    -0.00000     0.00000     0.00000
  49      -0.00000     0.00000    -0.00000    -0.00000     0.00000    -0.00000
  50       0.00000     0.00000    -0.00000    -0.00000     0.00000    -0.00000
  51      -0.00000    -0.00000     0.00000    -0.15560    -0.00000    -1.78134
  52       0.00140     0.01150    -0.00375    -0.00000    -0.00000     0.00000
  53      -0.00422     0.00401     0.01069     0.00000    -0.00000    -0.00000
  54       0.01133     0.00007     0.00444     0.00000    -0.00000     0.00000
  55      -0.00000    -0.00000     0.00000    -0.26494    -0.00000    -1.77476
  56      -0.06161    -0.00117    -0.02001     0.00000     0.00000    -0.00000
  57      -0.01511     0.04521     0.04388     0.00000     0.00000     0.00000
  58      -0.01317    -0.04639     0.04327    -0.00000    -0.00000    -0.00000
  59      -0.00000     0.00000    -0.00000     0.00000     0.00000    -0.00000
  60      -0.00000    -0.00000     0.00000     0.00000     0.00000     0.00000
  61      -0.00075    -0.03568    -0.04736    -0.00000     0.00000     0.00000
  62      -0.05904    -0.00393     0.00389    -0.00000    -0.00000     0.00000
  63       0.00548    -0.04720     0.03548     0.00000     0.00000     0.00000
  64       0.00000     0.00000    -0.00000     0.11027    -0.00000     0.76142
  65       0.00000     0.00000    -0.00000     0.16520    -0.00000     1.34924
  66       0.00202    -0.00684     0.02520     0.00000     0.00000     0.00000
  67      -0.01509    -0.02093    -0.00447     0.00000     0.00000     0.00000
  68       0.02131    -0.01417    -0.00556     0.00000     0.00000     0.00000
  69       0.00000     0.00000    -0.00000     0.00390     0.00000     0.21618

           13          14          15          16          17          18  
       ----------- ----------- ----------- ----------- ----------- -----------
   1       0.00000     0.00000     0.00000    -0.00000     0.00000    -0.00000
   2      -0.00000     0.00000     0.00000    -0.00000    -0.00000     0.00000
   3       0.00000     0.00000     0.00000    -0.00000     0.00000    -0.00000
   4       0.00000    -0.00000    -0.00000    -0.00000    -0.00000     0.00000
   5      -0.00000    -0.00000     0.00000    -0.00000     0.00000    -0.00000
   6      -0.00000     0.00000    -0.00000    -0.00000    -0.00000     0.00000
   7      -0.00000     0.00000     0.00000    -0.00000    -0.00000    -0.00000
   8      -0.00000    -0.00000     0.00000     0.00000    -0.00000     0.00000
   9       0.00000     0.00000     0.00000     0.00000    -0.00000     0.00000
  10       0.00000     0.00000    -0.00000     0.00000     0.00000     0.00000
  11      -0.00000     0.00000     0.00000     0.00000     0.00000     0.00000
  12      -0.00000     0.00000    -0.00000     0.00000     0.00000     0.00000
  13       1.26361    -0.00000     0.00000    -0.00000     0.00000    -0.00000
  14      -0.00000     1.26361    -0.00000     0.00000     0.00000    -0.00000
  15       0.00000    -0.00000     1.26361     0.00000     0.00000    -0.00000
  16      -0.00000     0.00000     0.00000     1.12860    -0.00000     0.00000
  17       0.00000     0.00000     0.00000    -0.00000     1.12860     0.00000
  18      -0.00000    -0.00000    -0.00000     0.00000     0.00000     1.12860
  19      -0.00000    -0.00000     0.00000    -0.00000    -0.00000    -0.00000
  20       0.00000    -0.00000    -0.00000     0.00000    -0.00000     0.00000
  21       0.00000     0.00000     0.00000    -0.00000     0.00000    -0.00000
  22      -0.00000    -0.00000     0.00000     0.00000    -0.00000    -0.00000
  23       0.00000     0.00000    -0.00000     0.00000    -0.00000    -0.00000
  24      -0.00000     0.00000     0.00000     0.00000    -0.00000    -0.00000
  25       0.00000     0.00000     0.00000     0.00000    -0.00000    -0.00000
  26       0.00000    -0.00000     0.00000     0.00000     0.00000     0.00000
  27      -0.00000     0.00000    -0.00000    -0.00000    -0.00000    -0.00000
  28      -0.00000     0.00000    -0.00000     0.19284    -0.12799     0.34952
  29      -0.00000     0.00000     0.00000    -0.32472    -0.25026     0.08751
  30      -0.00000     0.00000     0.00000     0.18194    -0.31100    -0.21427
  31       0.00603    -0.38140    -0.05750    -0.00000    -0.00000    -0.00000
  32       0.38348     0.01210    -0.04004    -0.00000    -0.00000     0.00000
  33      -0.04139     0.05653    -0.37934    -0.00000    -0.00000    -0.00000
  34       0.00000    -0.00000     0.00000     0.00000    -0.00000     0.00000
  35       0.00000     0.00000    -0.00000    -0.00000     0.00000    -0.00000
  36       0.00000    -0.00000    -0.00000    -0.00000     0.00000    -0.00000
  37       0.00000     0.00000    -0.00000    -0.00000     0.00000    -0.00000
  38       0.00000     0.00000     0.00000    -0.02247     0.11057    -0.20070
  39       0.00000    -0.00000    -0.00000     0.17569    -0.12114    -0.08641
  40      -0.00000     0.00000     0.00000    -0.14710    -0.16158    -0.07255
  41      -0.00000    -0.00000     0.00000    -0.00000     0.00000     0.00000
  42      -0.00000     0.00000     0.00000     0.00000    -0.00000    -0.00000
  43       0.00000    -0.00000    -0.00000     0.00000     0.00000    -0.00000
  44       0.00000     0.00000     0.00000    -0.00000    -0.00000    -0.00000
  45      -0.00000     0.00000     0.00000    -0.00000     0.00000    -0.00000
  46      -0.00000     0.00000    -0.00000     0.02213     0.09435     0.06391
  47      -0.00000     0.00000     0.00000    -0.11179     0.03061    -0.00647
  48       0.00000     0.00000     0.00000     0.02211     0.06031    -0.09669
  49       0.00000     0.00000     0.00000    -0.00000     0.00000     0.00000
  50      -0.00000     0.00000     0.00000    -0.00000     0.00000    -0.00000
  51      -0.00000    -0.00000    -0.00000    -0.00000    -0.00000     0.00000
  52      -0.00000     0.00000    -0.00000     0.00000     0.00000    -0.00000
  53      -0.00000     0.00000    -0.00000     0.00000     0.00000    -0.00000
  54      -0.00000     0.00000     0.00000     0.00000     0.00000    -0.00000
  55      -0.00000    -0.00000    -0.00000    -0.00000     0.00000     0.00000
  56       0.00000     0.00000    -0.00000    -0.00000    -0.00000    -0.00000
  57      -0.00000    -0.00000    -0.00000     0.00000    -0.00000     0.00000
  58      -0.00000     0.00000     0.00000     0.00000     0.00000     0.00000
  59       0.00000     0.00000     0.00000    -0.00000     0.00000    -0.00000
  60       0.00000    -0.00000    -0.00000     0.00000     0.00000    -0.00000
  61      -0.00000    -0.00000     0.00000     0.00000    -0.00000     0.00000
  62       0.00000    -0.00000     0.00000     0.00000    -0.00000    -0.00000
  63       0.00000    -0.00000    -0.00000    -0.00000    -0.00000    -0.00000
  64       0.00000     0.00000    -0.00000     0.00000     0.00000    -0.00000
  65       0.00000     0.00000     0.00000     0.00000     0.00000    -0.00000
  66       0.00000     0.00000    -0.00000     0.00000    -0.00000    -0.00000
  67       0.00000     0.00000     0.00000    -0.00000    -0.00000     0.00000
  68      -0.00000    -0.00000     0.00000     0.00000    -0.00000    -0.00000
  69       0.00000     0.00000     0.00000     0.00000     0.00000    -0.00000

           19          20          21          22          23          24  
       ----------- ----------- ----------- ----------- ----------- -----------
   1       0.00000     0.00000    -0.00000     0.00000    -0.00000     0.00000
   2      -0.00000    -0.00000     0.00000     0.00000    -0.00000    -0.00000
   3       0.05998    -0.06213    -0.07179     0.00000    -0.00000    -0.00000
   4      -0.09201    -0.05900    -0.02580     0.00000     0.00000     0.00000
   5       0.02344    -0.07260     0.08241    -0.00000    -0.00000     0.00000
   6      -0.00000     0.00000     0.00000    -0.00000     0.00000    -0.00000
   7       0.21390    -0.02236    -0.29874    -0.00000     0.00000    -0.00000
   8      -0.28173    -0.13980    -0.19126    -0.00000     0.00000    -0.00000
   9      -0.10184     0.33979    -0.09835     0.00000     0.00000    -0.00000
  10      -0.00000    -0.00000     0.00000    -0.00000     0.00000     0.00000
  11       0.00000     0.00000     0.00000    -0.00000    -0.00000    -0.38575
  12       0.00000     0.00000     0.00000    -0.00000    -0.00000     0.00000
  13      -0.00000     0.00000     0.00000    -0.00000     0.00000    -0.00000
  14      -0.00000    -0.00000     0.00000    -0.00000     0.00000     0.00000
  15       0.00000    -0.00000     0.00000     0.00000    -0.00000     0.00000
  16      -0.00000     0.00000    -0.00000     0.00000     0.00000     0.00000
  17      -0.00000    -0.00000     0.00000    -0.00000    -0.00000    -0.00000
  18      -0.00000     0.00000    -0.00000    -0.00000    -0.00000    -0.00000
  19       1.24850     0.00000    -0.00000     0.00000     0.00000     0.00000
  20       0.00000     1.24850     0.00000     0.00000    -0.00000    -0.00000
  21      -0.00000     0.00000     1.24850     0.00000    -0.00000     0.00000
  22       0.00000     0.00000     0.00000     1.12860     0.00000     0.00000
  23       0.00000    -0.00000    -0.00000     0.00000     1.12860     0.00000
  24       0.00000    -0.00000     0.00000     0.00000     0.00000     0.75204
  25       0.02565     0.13059    -0.00283     0.00000    -0.00000    -0.00000
  26      -0.11131     0.02034    -0.07010    -0.00000     0.00000    -0.00000
  27       0.06834    -0.01587    -0.11312    -0.00000     0.00000     0.00000
  28       0.00000    -0.00000     0.00000     0.00000    -0.00000    -0.00000
  29      -0.00000    -0.00000    -0.00000     0.00000     0.00000    -0.00000
  30       0.00000    -0.00000     0.00000    -0.00000    -0.00000     0.00000
  31       0.00000     0.00000     0.00000     0.00000     0.00000    -0.00000
  32       0.00000     0.00000     0.00000     0.00000    -0.00000     0.00000
  33       0.00000    -0.00000     0.00000     0.00000    -0.00000     0.00000
  34      -0.31483     0.17467     0.05478    -0.00000     0.00000     0.00000
  35      -0.17091    -0.31950     0.03654     0.00000     0.00000    -0.00000
  36       0.06558     0.00589     0.35818    -0.00000     0.00000    -0.00000
  37       0.00000    -0.00000    -0.00000    -0.00000    -0.00000     0.00000
  38       0.00000     0.00000    -0.00000     0.00000     0.00000    -0.00000
  39       0.00000    -0.00000     0.00000     0.00000    -0.00000    -0.00000
  40      -0.00000    -0.00000    -0.00000     0.00000     0.00000     0.00000
  41       0.00000     0.00000     0.00000     0.29290    -0.29991     0.00000
  42       0.00000    -0.00000     0.00000     0.29991     0.29290     0.00000
  43       0.02054    -0.00194     0.00222    -0.00000    -0.00000    -0.00000
  44      -0.00053    -0.01778    -0.01068     0.00000    -0.00000    -0.00000
  45      -0.00291    -0.01051     0.01765    -0.00000     0.00000    -0.00000
  46       0.00000     0.00000    -0.00000    -0.00000     0.00000    -0.00000
  47      -0.00000     0.00000    -0.00000     0.00000     0.00000     0.00000
  48       0.00000     0.00000     0.00000     0.00000    -0.00000    -0.00000
  49       0.00000    -0.00000    -0.00000    -0.21742     0.07575     0.00000
  50       0.00000     0.00000     0.00000    -0.07575    -0.21742    -0.00000
  51       0.00000     0.00000     0.00000    -0.00000     0.00000     0.00000
  52       0.11112     0.12667     0.09775     0.00000     0.00000     0.00000
  53       0.13562    -0.13771     0.02429    -0.00000    -0.00000     0.00000
  54      -0.08490    -0.05420     0.16674    -0.00000    -0.00000     0.00000
  55      -0.00000    -0.00000     0.00000    -0.00000     0.00000    -0.00000
  56      -0.04054    -0.01972     0.07725    -0.00000    -0.00000     0.00000
  57      -0.07665     0.03347    -0.03168    -0.00000    -0.00000    -0.00000
  58       0.02193     0.08056     0.03207     0.00000     0.00000    -0.00000
  59       0.00000    -0.00000    -0.00000    -0.11039    -0.03591     0.00000
  60       0.00000    -0.00000    -0.00000    -0.03591     0.11039     0.00000
  61      -0.17286     0.13022    -0.13750     0.00000     0.00000    -0.00000
  62       0.14001    -0.03748    -0.21151     0.00000     0.00000     0.00000
  63      -0.12751    -0.21767    -0.04584    -0.00000    -0.00000    -0.00000
  64       0.00000     0.00000    -0.00000     0.00000    -0.00000    -0.00000
  65       0.00000     0.00000    -0.00000     0.00000    -0.00000    -0.00000
  66       0.00043    -0.01997     0.00374     0.00000    -0.00000    -0.00000
  67      -0.00659    -0.00368    -0.01887     0.00000    -0.00000     0.00000
  68      -0.01922     0.00081     0.00655    -0.00000     0.00000     0.00000
  69       0.00000     0.00000    -0.00000     0.00000    -0.00000     0.00000

           25          26          27          28          29          30  
       ----------- ----------- ----------- ----------- ----------- -----------
   1       0.00000    -0.00000    -0.00000    -0.00000    -0.00000     0.00000
   2      -0.00000     0.00000    -0.00000     0.00000     0.00000    -0.00000
   3      -0.18345    -0.08369     0.38016    -0.00000     0.00000     0.00000
   4      -0.28762     0.31233    -0.07003    -0.00000     0.00000    -0.00000
   5      -0.26231    -0.28395    -0.18908    -0.00000     0.00000     0.00000
   6       0.00000    -0.00000    -0.00000     0.00000     0.00000    -0.00000
   7       0.04330    -0.04217     0.61916    -0.00000    -0.00000    -0.00000
   8      -0.31666     0.53229     0.05840     0.00000    -0.00000    -0.00000
   9       0.53373     0.31923    -0.01558     0.00000    -0.00000    -0.00000
  10       0.00000    -0.00000    -0.00000    -0.00000     0.00000    -0.00000
  11      -0.00000    -0.00000    -0.00000     0.00000    -0.00000     0.00000
  12       0.00000    -0.00000    -0.00000     0.00000     0.00000    -0.00000
  13       0.00000     0.00000    -0.00000    -0.00000    -0.00000    -0.00000
  14       0.00000    -0.00000     0.00000     0.00000     0.00000     0.00000
  15       0.00000     0.00000    -0.00000    -0.00000     0.00000     0.00000
  16       0.00000     0.00000    -0.00000     0.19284    -0.32472     0.18194
  17      -0.00000     0.00000    -0.00000    -0.12799    -0.25026    -0.31100
  18      -0.00000     0.00000    -0.00000     0.34952     0.08751    -0.21427
  19       0.02565    -0.11131     0.06834     0.00000    -0.00000     0.00000
  20       0.13059     0.02034    -0.01587    -0.00000    -0.00000    -0.00000
  21      -0.00283    -0.07010    -0.11312     0.00000    -0.00000     0.00000
  22       0.00000    -0.00000    -0.00000     0.00000     0.00000    -0.00000
  23      -0.00000     0.00000     0.00000    -0.00000     0.00000    -0.00000
  24      -0.00000    -0.00000     0.00000    -0.00000    -0.00000     0.00000
  25       1.58414     0.00000     0.00000     0.00000    -0.00000     0.00000
  26       0.00000     1.58414    -0.00000    -0.00000    -0.00000     0.00000
  27       0.00000    -0.00000     1.58414     0.00000     0.00000     0.00000
  28       0.00000    -0.00000     0.00000     0.37718     0.00000    -0.00000
  29      -0.00000    -0.00000     0.00000     0.00000     0.37718     0.00000
  30       0.00000     0.00000     0.00000    -0.00000     0.00000     0.37718
  31      -0.00000     0.00000    -0.00000    -0.00000     0.00000    -0.00000
  32       0.00000    -0.00000    -0.00000    -0.00000     0.00000    -0.00000
  33      -0.00000    -0.00000     0.00000     0.00000    -0.00000     0.00000
  34      -0.05049    -0.12036     0.10557    -0.00000    -0.00000    -0.00000
  35       0.16003    -0.03450     0.03721    -0.00000     0.00000    -0.00000
  36      -0.00498     0.11183     0.12511     0.00000     0.00000     0.00000
  37      -0.00000     0.00000     0.00000    -0.00000    -0.00000     0.00000
  38       0.00000    -0.00000     0.00000    -0.64919    -0.27788     0.03318
[...]
  26      -0.00000     0.00000     0.00000     0.18793    -0.00000     0.00000
  27      -0.00000     0.00000     0.00000     0.00000    -0.00000     0.00000
  28       0.00000     0.00000    -0.00000    -0.00000     0.00000     0.00000
  29       0.00000     0.00000     0.00000     0.18793    -0.00000     0.00000
  30      -0.00000    -0.00000     0.00000     0.00000    -0.00000    -0.00000
  31      -0.00000     0.00000     0.00000     0.18793    -0.00000     0.00000
  32       0.00000    -0.00000    -0.00000    -0.69448     0.00000    -0.00000
  33       0.00000    -0.00000    -0.00000    -0.00000     0.00000    -0.00000
  34      -0.00000    -0.00000     0.00000     0.00000    -0.00000    -0.00000
  35       0.00000    -0.00000    -0.00000    -0.69448     0.00000    -0.00000
  36       0.00000     0.00000    -0.00000    -0.00000     0.00000     0.00000
  37       0.00000    -0.00000    -0.00000    -0.69448     0.00000    -0.00000
  38       0.00000    -0.00000    -0.00000     3.43643    -0.00000     0.00000
  39      -0.00000     0.00000     0.00000     0.00000    -0.00000     0.00000
  40       0.00000     0.00000    -0.00000     0.00000     0.00000     0.00000
  41       0.00000    -0.00000    -0.00000     3.43643    -0.00000     0.00000
  42      -0.00000    -0.00000     0.00000     0.00000    -0.00000    -0.00000
  43       0.00000    -0.00000    -0.00000     3.43643    -0.00000     0.00000
  44       0.00000    -0.00000    -0.00000     0.38277     0.00000    -0.00000
  45       0.00000    -0.00000    -0.00000    -0.00000     0.00000    -0.00000
  46      -0.00000    -0.00000     0.00000    -0.00000    -0.00000    -0.00000
  47       0.00000    -0.00000    -0.00000     0.38277     0.00000    -0.00000
  48       0.00000     0.00000    -0.00000    -0.00000     0.00000     0.00000
  49       0.00000    -0.00000    -0.00000     0.38277     0.00000    -0.00000
  50      -5.47422     0.12251     4.67044    -0.00000    -9.70341     0.22376
  51      -4.66932     0.10196    -5.47559     0.00000    -5.71537     0.12014
  52      -0.15937    -7.19512     0.00193     0.00000    -0.25377   -11.26150
  53      -5.47422     0.12251     4.67044    -0.00000    -9.70341     0.22376
  54      -0.00000     0.00000     0.00000    -0.00000    -0.00000    -0.00000
  55      -5.47422     0.12251     4.67044    -0.00000    -9.70341     0.22376
  56      -4.66933     0.10196    -5.47559     0.00000    -5.71537     0.12014
  57      -0.15937    -7.19512     0.00193     0.00000    -0.25377   -11.26150
  58      -4.66932     0.10196    -5.47559     0.00000    -5.71537     0.12014
  59      -0.15937    -7.19512     0.00193     0.00000    -0.25377   -11.26150
  60      -5.04515     0.11290     4.30437    -0.00000    -5.05765     0.11663
  61      -4.30334     0.09397    -5.04642     0.00000    -2.97899     0.06262
  62      -0.14688    -6.63116     0.00178     0.00000    -0.13227    -5.86977
  63      -5.04515     0.11290     4.30437    -0.00000    -5.05765     0.11663
  64       0.00000    -0.00000    -0.00000     0.00000     0.00000     0.00000
  65      -5.04515     0.11290     4.30437    -0.00000    -5.05765     0.11663
  66      -4.30334     0.09397    -5.04642     0.00000    -2.97899     0.06262
  67      -0.14688    -6.63116     0.00178     0.00000    -0.13227    -5.86977
  68      -4.30334     0.09397    -5.04642     0.00000    -2.97899     0.06262
  69      -0.14688    -6.63116     0.00178     0.00000    -0.13227    -5.86977

           67          68          69  
       ----------- ----------- -----------
   1      -0.00000     1.04289     1.09912
   2      -0.00000     7.67820    16.00780
   3      -0.00000    30.99803    30.69055
   4      -0.00000    42.33807     9.55431
   5       0.00000   -19.67327    16.27194
   6      -0.00000    36.96221     6.33314
   7       0.00000     2.69274     0.66054
   8      -0.46095    -0.00000    -0.00000
   9       0.78263     0.00000     0.00000
  10      -0.00081     0.00000     0.00000
  11      -5.53679    -0.00000    -0.00000
  12       9.40065     0.00000     0.00000
  13      -0.00973     0.00000     0.00000
  14     -12.46859    -0.00000    -0.00000
  15      21.16982     0.00000     0.00000
  16      -0.02190     0.00000     0.00000
  17       2.61318     0.00000     0.00000
  18      -4.43679    -0.00000    -0.00000
  19       0.00459    -0.00000    -0.00000
  20      -2.25505    -0.00000    -0.00000
  21       3.82873     0.00000     0.00000
  22      -0.00396     0.00000     0.00000
  23       0.21377     0.00000     0.00000
  24      -0.36295    -0.00000    -0.00000
  25       0.00038    -0.00000    -0.00000
  26       0.00000    -0.79968   -17.65597
  27       0.00000     0.00000     0.00000
  28      -0.00000     0.00000     0.00000
  29       0.00000    -0.79968   -17.65597
  30       0.00000    -0.00000     0.00000
  31       0.00000    -0.79968   -17.65597
  32      -0.00000   -11.44475    -6.86534
  33      -0.00000    -0.00000    -0.00000
  34       0.00000    -0.00000    -0.00000
  35      -0.00000   -11.44475    -6.86534
  36      -0.00000     0.00000    -0.00000
  37      -0.00000   -11.44475    -6.86534
  38       0.00000   -17.12111    -3.04976
  39       0.00000     0.00000     0.00000
  40      -0.00000     0.00000     0.00000
  41       0.00000   -17.12111    -3.04976
  42       0.00000    -0.00000     0.00000
  43       0.00000   -17.12111    -3.04976
  44      -0.00000    -3.25297    -0.64920
  45      -0.00000    -0.00000    -0.00000
  46       0.00000    -0.00000    -0.00000
  47      -0.00000    -3.25297    -0.64920
  48      -0.00000     0.00000    -0.00000
  49      -0.00000    -3.25297    -0.64920
  50       5.71662     0.00000     0.00000
  51      -9.70598    -0.00000    -0.00000
  52       0.01004    -0.00000    -0.00000
  53       5.71662     0.00000     0.00000
  54       0.00000    -0.00000    -0.00000
  55       5.71662     0.00000     0.00000
  56      -9.70598    -0.00000    -0.00000
  57       0.01004    -0.00000    -0.00000
  58      -9.70598    -0.00000    -0.00000
  59       0.01004    -0.00000    -0.00000
  60       2.97964     0.00000     0.00000
  61      -5.05899    -0.00000    -0.00000
  62       0.00523    -0.00000    -0.00000
  63       2.97964     0.00000     0.00000
  64      -0.00000     0.00000     0.00000
  65       2.97964     0.00000     0.00000
  66      -5.05899    -0.00000    -0.00000
  67       0.00523    -0.00000    -0.00000
  68      -5.05899    -0.00000    -0.00000
  69       0.00523    -0.00000    -0.00000
  int_init: cando_txs set to always be  F
                                NWChem TDDFT Module
                                -------------------


            General Information
            -------------------
           No. of orbitals :     138
            Alpha orbitals :      69
             Beta orbitals :      69
        Alpha frozen cores :       0
         Beta frozen cores :       0
     Alpha frozen virtuals :       0
      Beta frozen virtuals :       0
         Spin multiplicity :       4
    Number of AO functions :      69
        Use of symmetry is : off
      Symmetry adaption is : off
         Schwarz screening :  0.10D-07

              XC Information
              --------------
              Hartree-Fock (Exact) Exchange   1.00          
              LC-wPBE(h)Exchange Functional   1.00          
     Perdew 1991 LDA Correlation Functional   1.00 local    
    PerdewBurkeErnz. Correlation Functional   1.00 non-local
           Alpha           :  0.00
           Beta            :  1.00
           Gamma           :  0.26

             TDDFT Information
             -----------------
          Calculation type : TDDFT             
         Wavefunction type : Unrestricted
          No. of electrons :      33
           Alpha electrons :      18
            Beta electrons :      15
              No. of roots :       5
          Max subspacesize :    5000
            Max iterations :     100
               Target root :       1
           Target symmetry : none
      Symmetry restriction : off
                 Algorithm : Optimal
        Davidson threshold :  0.10D-03

            Memory Information
            ------------------
          Available GA space size is       52428790478 doubles
          Available MA space size is        4194421852 doubles
          Length of a trial vector is          918     810
          Algorithm : Incore multiple tensor contraction
          Estimated peak GA usage is          35377128 doubles
          Estimated peak MA usage is             18000 doubles

    5 smallest eigenvalue differences (eV) 
--------------------------------------------------------
  No. Spin  Occ  Vir  Irrep   E(Occ)    E(Vir)   E(Diff)
--------------------------------------------------------
    1    1   18   19 a        -0.333     0.039    10.123
    2    1   17   19 a        -0.333     0.039    10.123
    3    1   16   19 a        -0.333     0.039    10.123
    4    1   18   20 a        -0.333     0.064    10.808
    5    1   18   21 a        -0.333     0.064    10.808
--------------------------------------------------------

  Entering Davidson iterations
  Unrestricted

  Iter   NTrls   NConv    DeltaV     DeltaE      Time   
  ----  ------  ------  ---------  ---------  --------- 
    1      5       0     0.60E-01   0.10+100        9.8
    2     15       0     0.33E-01   0.76E-02       11.9
    3     25       0     0.29E-01   0.19E-02       12.0
    4     35       0     0.10E-01   0.12E-02       11.9
    5     45       0     0.12E-02   0.56E-04       12.1
    6     55       4     0.20E-03   0.86E-06       12.1
    7     57       5     0.94E-04   0.13E-07        8.5
  ----  ------  ------  ---------  ---------  --------- 
  Convergence criterion met

  Ground state a       -2235.539452982062 a.u.
  <S2> =   3.7510

  ----------------------------------------------------------------------------
  Root   1         a              0.220833676 a.u.                6.0092 eV 
  <S2> =   3.7525
  ----------------------------------------------------------------------------
     Transition Moments    X -0.00045   Y  0.81525   Z  0.00136
     Transition Moments   XX  0.00000  XY -0.00000  XZ -0.00000
     Transition Moments   YY  0.00000  YZ  0.00000  ZZ  0.00000
     Dipole Oscillator Strength                    0.0978500836
     Electric Quadrupole                           0.0000000000
     Magnetic Dipole                               0.0000000000
     Total Oscillator Strength                     0.0978500836

     Occ.   16 alpha a   ---  Virt.   19 alpha a   -0.97291 X
     Occ.   16 alpha a   ---  Virt.   28 alpha a    0.22589 X
  ----------------------------------------------------------------------------
  Root   2         a              0.220833676 a.u.                6.0092 eV 
  <S2> =   3.7525
  ----------------------------------------------------------------------------
     Transition Moments    X  0.00728   Y -0.00136   Z  0.81522
     Transition Moments   XX -0.00000  XY  0.00000  XZ  0.00000
     Transition Moments   YY -0.00000  YZ  0.00000  ZZ -0.00000
     Dipole Oscillator Strength                    0.0978500837
     Electric Quadrupole                           0.0000000000
     Magnetic Dipole                               0.0000000000
     Total Oscillator Strength                     0.0978500837

     Occ.   17 alpha a   ---  Virt.   19 alpha a   -0.85669 X
     Occ.   17 alpha a   ---  Virt.   28 alpha a    0.19891 X
     Occ.   18 alpha a   ---  Virt.   19 alpha a   -0.46113 X
     Occ.   18 alpha a   ---  Virt.   28 alpha a    0.10706 X
  ----------------------------------------------------------------------------
  Root   3         a              0.220833676 a.u.                6.0092 eV 
  <S2> =   3.7525
  ----------------------------------------------------------------------------
     Transition Moments    X -0.81522   Y -0.00046   Z  0.00727
     Transition Moments   XX -0.00000  XY -0.00000  XZ -0.00000
     Transition Moments   YY -0.00000  YZ  0.00000  ZZ -0.00000
     Dipole Oscillator Strength                    0.0978500837
     Electric Quadrupole                           0.0000000000
     Magnetic Dipole                               0.0000000000
     Total Oscillator Strength                     0.0978500837

     Occ.   17 alpha a   ---  Virt.   19 alpha a   -0.46113 X
     Occ.   17 alpha a   ---  Virt.   28 alpha a    0.10706 X
     Occ.   18 alpha a   ---  Virt.   19 alpha a    0.85669 X
     Occ.   18 alpha a   ---  Virt.   28 alpha a   -0.19891 X
  ----------------------------------------------------------------------------
  Root   4         a              0.262770600 a.u.                7.1504 eV 
  <S2> =   3.7516
  ----------------------------------------------------------------------------
     Transition Moments    X  0.00000   Y -0.00000   Z  0.00000
     Transition Moments   XX -1.11545  XY -0.00143  XZ -1.26108
     Transition Moments   YY  0.93724  YZ -0.00100  ZZ  0.17822
     Dipole Oscillator Strength                    0.0000000000
     Electric Quadrupole                           0.0000002577
     Magnetic Dipole                               0.0000000000
     Total Oscillator Strength                     0.0000002577

     Occ.   16 alpha a   ---  Virt.   22 alpha a    0.39990 X
     Occ.   16 alpha a   ---  Virt.   31 alpha a   -0.06763 X
     Occ.   17 alpha a   ---  Virt.   20 alpha a    0.31644 X
     Occ.   17 alpha a   ---  Virt.   21 alpha a   -0.25625 X
     Occ.   17 alpha a   ---  Virt.   30 alpha a   -0.05363 X
     Occ.   18 alpha a   ---  Virt.   20 alpha a   -0.44489 X
     Occ.   18 alpha a   ---  Virt.   21 alpha a   -0.66905 X
     Occ.   18 alpha a   ---  Virt.   29 alpha a    0.11335 X
     Occ.   18 alpha a   ---  Virt.   30 alpha a    0.07494 X
  ----------------------------------------------------------------------------
  Root   5         a              0.262770601 a.u.                7.1504 eV 
  <S2> =   3.7516
  ----------------------------------------------------------------------------
     Transition Moments    X -0.00000   Y  0.00000   Z  0.00000
     Transition Moments   XX  1.47871  XY  0.00110  XZ -0.78969
     Transition Moments   YY -0.10375  YZ -0.00168  ZZ -1.37496
     Dipole Oscillator Strength                    0.0000000000
     Electric Quadrupole                           0.0000002577
     Magnetic Dipole                               0.0000000000
     Total Oscillator Strength                     0.0000002577

     Occ.   17 alpha a   ---  Virt.   20 alpha a   -0.36577 X
     Occ.   17 alpha a   ---  Virt.   21 alpha a   -0.58986 X
     Occ.   17 alpha a   ---  Virt.   29 alpha a    0.09992 X
     Occ.   17 alpha a   ---  Virt.   30 alpha a    0.06159 X
     Occ.   18 alpha a   ---  Virt.   20 alpha a   -0.56897 X
     Occ.   18 alpha a   ---  Virt.   21 alpha a    0.40480 X
     Occ.   18 alpha a   ---  Virt.   29 alpha a   -0.06821 X
     Occ.   18 alpha a   ---  Virt.   30 alpha a    0.09640 X

              Target root =      1
          Target symmetry = none
      Ground state energy =  -2235.539452982062
        Excitation energy =      0.220833675611
     Excited state energy =  -2235.318619306451

  stored tddft:energy   -2235.3186193064512     

 Task  times  cpu:       85.9s     wall:      100.2s


                                NWChem Input Module
                                -------------------


 Summary of allocated global arrays
-----------------------------------
  No active global arrays


MA_summarize_allocated_blocks: starting scan ...
heap block 'gridpts', handle 97, address 0x1365d1a8:
	type of elements:		double precision
	number of elements:		1048456624
	address of client space:	0x1365d200
	index for client space:		12522903
	total number of bytes:		8387653088
MA_summarize_allocated_blocks: scan completed: 1 heap block, 0 stack blocks
MA usage statistics:

	allocation statistics:
					      heap	     stack
					      ----	     -----
	current number of blocks	         1	         0
	maximum number of blocks	        18	        54
	current total bytes		8387653088	         0
	maximum total bytes		8388447248	 109417528
	maximum total K-bytes		   8388448	    109418
	maximum total M-bytes		      8389	       110


                                     CITATION
                                     --------
                Please cite the following reference when publishing
                           results obtained with NWChem:

          E. Apra, E. J. Bylaska, W. A. de Jong, N. Govind, K. Kowalski,
       T. P. Straatsma, M. Valiev, H. J. J. van Dam, Y. Alexeev, J. Anchell,
       V. Anisimov, F. W. Aquino, R. Atta-Fynn, J. Autschbach, N. P. Bauman,
     J. C. Becca, D. E. Bernholdt, K. Bhaskaran-Nair, S. Bogatko, P. Borowski,
         J. Boschen, J. Brabec, A. Bruner, E. Cauet, Y. Chen, G. N. Chuev,
      C. J. Cramer, J. Daily, M. J. O. Deegan, T. H. Dunning Jr., M. Dupuis,
   K. G. Dyall, G. I. Fann, S. A. Fischer, A. Fonari, H. Fruchtl, L. Gagliardi,
      J. Garza, N. Gawande, S. Ghosh, K. Glaesemann, A. W. Gotz, J. Hammond,
       V. Helms, E. D. Hermes, K. Hirao, S. Hirata, M. Jacquelin, L. Jensen,
   B. G. Johnson, H. Jonsson, R. A. Kendall, M. Klemm, R. Kobayashi, V. Konkov,
      S. Krishnamoorthy, M. Krishnan, Z. Lin, R. D. Lins, R. J. Littlefield,
      A. J. Logsdail, K. Lopata, W. Ma, A. V. Marenich, J. Martin del Campo,
   D. Mejia-Rodriguez, J. E. Moore, J. M. Mullin, T. Nakajima, D. R. Nascimento,
    J. A. Nichols, P. J. Nichols, J. Nieplocha, A. Otero-de-la-Roza, B. Palmer,
    A. Panyala, T. Pirojsirikul, B. Peng, R. Peverati, J. Pittner, L. Pollack,
   R. M. Richard, P. Sadayappan, G. C. Schatz, W. A. Shelton, D. W. Silverstein,
   D. M. A. Smith, T. A. Soares, D. Song, M. Swart, H. L. Taylor, G. S. Thomas,
            V. Tipparaju, D. G. Truhlar, K. Tsemekhman, T. Van Voorhis,
      A. Vazquez-Mayagoitia, P. Verma, O. Villa, A. Vishnu, K. D. Vogiatzis,
        D. Wang, J. H. Weare, M. J. Williamson, T. L. Windus, K. Wolinski,
        A. T. Wong, Q. Wu, C. Yang, Q. Yu, M. Zacharias, Z. Zhang, Y. Zhao,
                                and R. J. Harrison
                        "NWChem: Past, present, and future
                         J. Chem. Phys. 152, 184102 (2020)
                               doi:10.1063/5.0004997

                                      AUTHORS
                                      -------
  E. Apra, E. J. Bylaska, N. Govind, K. Kowalski, M. Valiev, D. Mejia-Rodriguez,
       A. Kunitsa, N. P. Bauman, A. Panyala, W. A. de Jong, T. P. Straatsma,
   H. J. J. van Dam, D. Wang, T. L. Windus, J. Hammond, J. Autschbach, A. Woods,
    K. Bhaskaran-Nair, J. Brabec, K. Lopata, S. A. Fischer, S. Krishnamoorthy,
     M. Jacquelin, W. Ma, M. Klemm, O. Villa, Y. Chen, V. Anisimov, F. Aquino,
     S. Hirata, M. T. Hackler, E. Hermes, L. Jensen, J. E. Moore, J. C. Becca,
      V. Konjkov, T. Risthaus, M. Malagoli, A. Marenich, A. Otero-de-la-Roza,
        J. Mullin, P. Nichols, R. Peverati, J. Pittner, Y. Zhao, P.-D. Fan,
        A. Fonari, M. J. Williamson, R. J. Harrison, J. R. Rehr, M. Dupuis,
     D. Silverstein, D. M. A. Smith, J. Nieplocha, V. Tipparaju, M. Krishnan,
     B. E. Van Kuiken, A. Vazquez-Mayagoitia, M. Swart, Q. Wu, T. Van Voorhis,
     A. A. Auer, M. Nooijen, L. D. Crosby, E. Brown, G. Cisneros, G. I. Fann,
   H. Fruchtl, J. Garza, K. Hirao, R. A. Kendall, J. A. Nichols, K. Tsemekhman,
    K. Wolinski, J. Anchell, D. E. Bernholdt, P. Borowski, T. Clark, D. Clerc,
   H. Dachsel, M. J. O. Deegan, K. Dyall, D. Elwood, E. Glendening, M. Gutowski,
   A. C. Hess, J. Jaffe, B. G. Johnson, J. Ju, R. Kobayashi, R. Kutteh, Z. Lin,
   R. Littlefield, X. Long, B. Meng, T. Nakajima, S. Niu, L. Pollack, M. Rosing,
   K. Glaesemann, G. Sandrone, M. Stave, H. Taylor, G. Thomas, J. H. van Lenthe,
                               A. T. Wong, Z. Zhang.

 Total times  cpu:       85.9s     wall:      100.5s
