 argument  1 = /home/aditisingh4812/nw_chem/nwchem-run/nwchem-run/tddft/open/open_atom/geom-MOL/b.nw
                                         
                                         


             Northwest Computational Chemistry Package (NWChem) 7.2.3
             --------------------------------------------------------


                    Environmental Molecular Sciences Laboratory
                       Pacific Northwest National Laboratory
                                Richland, WA 99352

                              Copyright (c) 1994-2022
                       Pacific Northwest National Laboratory
                            Battelle Memorial Institute

             NWChem is an open-source computational chemistry package
                        distributed under the terms of the
                      Educational Community License (ECL) 2.0
             A copy of the license is included with this distribution
                              in the LICENSE.TXT file

                                  ACKNOWLEDGMENT
                                  --------------

            This software and its documentation were developed at the
            EMSL at Pacific Northwest National Laboratory, a multiprogram
            national laboratory, operated for the U.S. Department of Energy
            by Battelle under Contract Number DE-AC05-76RL01830. Support
            for this work was provided by the Department of Energy Office
            of Biological and Environmental Research, Office of Basic
            Energy Sciences, and the Office of Advanced Scientific Computing.


           Job information
           ---------------

    hostname        = p17
    program         = /home/aditisingh4812/nw_chem/nwchem-7.2.3-release.revision-d690e065-srconly.2024-08-27/nwchem-7.2.3/bin/LINUX64/nwchem
    date            = Thu May  8 11:46:59 2025

    compiled        = Mon_Apr_07_18:51:54_2025
    source          = /home/aditisingh4812/nw_chem/nwchem-7.2.3-release.revision-d690e065-srconly.2024-08-27/nwchem-7.2.3
    nwchem branch   = 7.2.3
    nwchem revision = d690e065
    ga revision     = 5.8.0
    use scalapack   = F
    input           = /home/aditisingh4812/nw_chem/nwchem-run/nwchem-run/tddft/open/open_atom/geom-MOL/b.nw
    prefix          = b.
    data base       = ./b.db
    status          = startup
    nproc           =        8
    time left       =     -1s



           Memory information
           ------------------

    heap     = 2621439998 doubles =  20000.0 Mbytes
    stack    = 2621439995 doubles =  20000.0 Mbytes
    global   = 6553600000 doubles =  50000.0 Mbytes (distinct from heap & stack)
    total    = ********** doubles =  90000.0 Mbytes
    verify   = yes
    hardfail = no 


           Directory information
           ---------------------

  0 permanent = .
  0 scratch   = .




                                NWChem Input Module
                                -------------------



 Scaling coordinates for geometry "geometry" by  1.889725989
 (inverse scale =  0.529177249)



                             Geometry "geometry" -> ""
                             -------------------------

 Output coordinates in angstroms (scale by  1.889725989 to convert to a.u.)

  No.       Tag          Charge          X              Y              Z
 ---- ---------------- ---------- -------------- -------------- --------------
    1 B                    5.0000     0.00000000     0.00000000     0.00000000

      Atomic Mass 
      ----------- 

      B                 11.009310


 Effective nuclear repulsion energy (a.u.)       0.0000000000

            Nuclear Dipole moment (a.u.) 
            ----------------------------
        X                 Y               Z
 ---------------- ---------------- ----------------
     0.0000000000     0.0000000000     0.0000000000


            XYZ format geometry
            -------------------
     1
 geometry
 B                     0.00000000     0.00000000     0.00000000



 Summary of "ao basis" -> "" (cartesian)
 ------------------------------------------------------------------------------
       Tag                 Description            Shells   Functions and Types
 ---------------- ------------------------------  ------  ---------------------
 *                        aug-cc-pVTZ                 on all atoms 


  pbe96 is a nonlocal functional; adding pw91lda local functional. 

                                 NWChem DFT Module
                                 -----------------


                      Basis "ao basis" -> "ao basis" (cartesian)
                      -----
  B (Boron)
  ---------
            Exponent  Coefficients 
       -------------- ---------------------------------------------------------
  1 S  5.47300000E+03  0.000555
  1 S  8.20900000E+02  0.004291
  1 S  1.86800000E+02  0.021949
  1 S  5.28300000E+01  0.084441
  1 S  1.70800000E+01  0.238557
  1 S  5.99900000E+00  0.435072
  1 S  2.20800000E+00  0.341955
  1 S  2.41500000E-01 -0.009545

  2 S  5.47300000E+03 -0.000112
  2 S  8.20900000E+02 -0.000868
  2 S  1.86800000E+02 -0.004484
  2 S  5.28300000E+01 -0.017683
  2 S  1.70800000E+01 -0.053639
  2 S  5.99900000E+00 -0.119005
  2 S  2.20800000E+00 -0.165824
  2 S  2.41500000E-01  0.595981

  3 S  5.87900000E-01  1.000000

  4 S  8.61000000E-02  1.000000

  5 S  2.91400000E-02  1.000000

  6 P  1.20500000E+01  0.013118
  6 P  2.61300000E+00  0.079896
  6 P  7.47500000E-01  0.277275

  7 P  2.38500000E-01  1.000000

  8 P  7.69800000E-02  1.000000

  9 P  2.09600000E-02  1.000000

 10 D  6.61000000E-01  1.000000

 11 D  1.99000000E-01  1.000000

 12 D  6.04000000E-02  1.000000

 13 F  4.90000000E-01  1.000000

 14 F  1.63000000E-01  1.000000



 Summary of "ao basis" -> "ao basis" (cartesian)
 ------------------------------------------------------------------------------
       Tag                 Description            Shells   Functions and Types
 ---------------- ------------------------------  ------  ---------------------
 B                        aug-cc-pVTZ               14       55   5s4p3d2f




 Summary of "ao basis" -> "ao basis" (cartesian)
 ------------------------------------------------------------------------------
       Tag                 Description            Shells   Functions and Types
 ---------------- ------------------------------  ------  ---------------------
 B                        aug-cc-pVTZ               14       55   5s4p3d2f




                         Geometry "geometry" -> "geometry"
                         ---------------------------------

 Output coordinates in angstroms (scale by  1.889725989 to convert to a.u.)

  No.       Tag          Charge          X              Y              Z
 ---- ---------------- ---------- -------------- -------------- --------------
    1 B                    5.0000     0.00000000     0.00000000     0.00000000

      Atomic Mass 
      ----------- 

      B                 11.009310


 Effective nuclear repulsion energy (a.u.)       0.0000000000

            Nuclear Dipole moment (a.u.) 
            ----------------------------
        X                 Y               Z
 ---------------- ---------------- ----------------
     0.0000000000     0.0000000000     0.0000000000


                      Basis "ao basis" -> "ao basis" (cartesian)
                      -----
  B (Boron)
  ---------
            Exponent  Coefficients 
       -------------- ---------------------------------------------------------
  1 S  5.47300000E+03  0.256655
  1 S  8.20900000E+02  0.478260
  1 S  1.86800000E+02  0.806000
  1 S  5.28300000E+01  1.202545
  1 S  1.70800000E+01  1.456618
  1 S  5.99900000E+00  1.212014
  1 S  2.20800000E+00  0.450148
  1 S  2.41500000E-01 -0.002390

  2 S  5.47300000E+03 -0.089117
  2 S  8.20900000E+02 -0.166461
  2 S  1.86800000E+02 -0.283318
  2 S  5.28300000E+01 -0.433303
  2 S  1.70800000E+01 -0.563536
  2 S  5.99900000E+00 -0.570427
  2 S  2.20800000E+00 -0.375597
  2 S  2.41500000E-01  0.256741

  3 S  5.87900000E-01  0.478506

  4 S  8.61000000E-02  0.113282

  5 S  2.91400000E-02  0.050266

  6 P  1.20500000E+01  1.245729
  6 P  2.61300000E+00  1.122720
  6 P  7.47500000E-01  0.815167

  7 P  2.38500000E-01  0.237575

  8 P  7.69800000E-02  0.057798

  9 P  2.09600000E-02  0.011368

 10 D  6.61000000E-01  0.797558

 11 D  1.99000000E-01  0.097589

 12 D  6.04000000E-02  0.012112

 13 F  4.90000000E-01  0.295730

 14 F  1.63000000E-01  0.024853



    Basis function labels
    ---------------------
       No.  Atm El Type
       ---  --- -- ----
        1    1 B  s          
        2    1 B  s          
        3    1 B  s          
        4    1 B  s          
        5    1 B  s          
        6    1 B  px         
        7    1 B  py         
        8    1 B  pz         
        9    1 B  px         
       10    1 B  py         
       11    1 B  pz         
       12    1 B  px         
       13    1 B  py         
       14    1 B  pz         
       15    1 B  px         
       16    1 B  py         
       17    1 B  pz         
       18    1 B  dxx        
       19    1 B  dxy        
       20    1 B  dxz        
       21    1 B  dyy        
       22    1 B  dyz        
       23    1 B  dzz        
       24    1 B  dxx        
       25    1 B  dxy        
       26    1 B  dxz        
       27    1 B  dyy        
       28    1 B  dyz        
       29    1 B  dzz        
       30    1 B  dxx        
       31    1 B  dxy        
       32    1 B  dxz        
       33    1 B  dyy        
       34    1 B  dyz        
       35    1 B  dzz        
       36    1 B  fxxx       
       37    1 B  fxxy       
       38    1 B  fxxz       
       39    1 B  fxyy       
       40    1 B  fxyz       
       41    1 B  fxzz       
       42    1 B  fyyy       
       43    1 B  fyyz       
       44    1 B  fyzz       
       45    1 B  fzzz       
       46    1 B  fxxx       
       47    1 B  fxxy       
       48    1 B  fxxz       
       49    1 B  fxyy       
       50    1 B  fxyz       
       51    1 B  fxzz       
       52    1 B  fyyy       
       53    1 B  fyyz       
       54    1 B  fyzz       
       55    1 B  fzzz       
  int_init: cando_txs set to always be  F

 Schwarz integral screening summary 
 ---------------------------------- 

        No. of atom pairs =       1
       No. of shell pairs =     105

 Atomic screening 

   value      no.     value      no.     value      no.     value      no.   
  -------- ------    -------- ------    -------- ------    -------- ------   
  0.00D+00      0    1.00D-13      0    1.00D-12      0    1.00D-11      0
  1.00D-10      0    1.00D-09      0    1.00D-08      0    1.00D-07      0
  1.00D-06      0    1.00D-05      0    1.00D-04      0    1.00D-03      0
  1.00D-02      0    1.00D-01      0    1.00D+00      1    1.00D+01      0


 Shell screening 

   value      no.     value      no.     value      no.     value      no.   
  -------- ------    -------- ------    -------- ------    -------- ------   
  0.00D+00      0    1.00D-13      0    1.00D-12      0    1.00D-11      0
  1.00D-10      0    1.00D-09      0    1.00D-08      0    1.00D-07      0
  1.00D-06      0    1.00D-05      0    1.00D-04      0    1.00D-03      1
  1.00D-02      6    1.00D-01     40    1.00D+00     58    1.00D+01      0


  Caching 1-el integrals 
  atom                     1  - neighbor  & S                     1   10.000000000000000       exp AB    2.0960000000000017E-002   2.0960000000000017E-002
 zmins =     0.020960000    0.020960000 lprod =   2 range =        22.76 acc   0.10D-06
 sh     0.000000000
  Center:                     1  Radial Pts. & Wghts. 
    1        0.000020132           2.4479563E-14
    2        0.000161060           6.2670133E-12
    3        0.000543593           1.6063375E-10
    4        0.001288582           1.6048576E-09
    5        0.002516977           9.5689585E-09
    6        0.004349889           4.1165707E-08
    7        0.006908689           1.4138988E-07
    8        0.010315116           4.1187410E-07
    9        0.014691411           1.0580644E-06
   10        0.020160474           2.4616776E-06
   11        0.026846036           5.2866230E-06
   12        0.034872860           1.0628062E-05
   13        0.044366967           2.0215983E-05
   14        0.055455877           3.6686667E-05
   15        0.068268889           6.3937768E-05
   16        0.082937374           1.0758554E-04
   17        0.099595114           1.7554614E-04
   18        0.118378660           2.7876700E-04
   19        0.139427728           4.3213922E-04
   20        0.162885637           6.5562817E-04
   21        0.188899785           9.7566668E-04
   22        0.217622167           1.4268645E-03
   23        0.249209955           2.0540992E-03
   24        0.283826124           2.9150673E-03
   25        0.321640147           4.0833914E-03
   26        0.362828761           5.6524030E-03
   27        0.407576812           7.7397429E-03
   28        0.456078196           1.0492960E-02
   29        0.508536900           1.4096331E-02
   30        0.565168168           1.8779167E-02
   31        0.626199796           2.4825966E-02
   32        0.691873596           3.2588824E-02
   33        0.762447034           4.2502655E-02
   34        0.838195079           5.5103903E-02
   35        0.919412309           7.1053612E-02
   36        1.006415294           9.1165968E-02
   37        1.099545321           1.1644374E-01
   38        1.199171524           1.4812246E-01
   39        1.305694478           1.8772573E-01
   40        1.419550365           2.3713485E-01
   41        1.541215811           2.9867676E-01
   42        1.671213533           3.7523601E-01
   43        1.810118978           4.7039783E-01
   44        1.958568152           5.8863248E-01
   45        2.117266922           7.3553416E-01
   46        2.287002143           9.1813319E-01
   47        2.468655036           1.1453072E+00
   48        2.663217418           1.4283277E+00
   49        2.871811528           1.7815933E+00
   50        3.095714459           2.2236244E+00
   51        3.336388554           2.7784280E+00
   52        3.595519587           3.4773941E+00
   53        3.875065278           4.3619681E+00
   54        4.177317673           5.4874755E+00
   55        4.504984450           6.9286909E+00
   56        4.861296501           8.7881031E+00
   57        5.250152660           1.1208451E+01
   58        5.676318170           1.4392205E+01
   59        6.145702731           1.8632700E+01
   60        6.665759808           2.4365503E+01
   61        7.246076796           3.2256407E+01
   62        7.899277171           4.3358901E+01
   63        8.642456231           5.9411235E+01
   64        9.499580578           8.3433902E+01
   65       10.505749801           1.2103151E+02
   66       11.715378893           1.8353758E+02
   67       13.219627590           2.9674037E+02
   68       15.189387966           5.3040603E+02
   69       18.008317855           1.1351604E+03
   70       22.900637259           3.7254100E+03
     irreducible set of Lebedev Angular points ;
  0.009523809523810  1.000000000000000  0.000000000000000  0.000000000000000
  0.032142857142857  0.577350269189626  0.577350269189626  0.577350269189626
  0.028571428571429  0.459700843380983  0.000000000000000  0.888073833977115
   total no. of   reducible points:  38; test:  1.00000000
  0.012698412698413  1.000000000000000  0.000000000000000  0.000000000000000
  0.022574955908289  0.707106781186547  0.707106781186547  0.000000000000000
  0.021093750000000  0.577350269189626  0.577350269189626  0.577350269189626
  0.020173335537919  0.301511344577764  0.301511344577764  0.904534033733291
   total no. of   reducible points:  50; test:  1.00000000
  0.000513067179734  1.000000000000000  0.000000000000000  0.000000000000000
  0.016604069565742  0.707106781186547  0.707106781186547  0.000000000000000
 -0.029586038961039  0.577350269189626  0.577350269189626  0.577350269189626
  0.026576207082159  0.480384461415261  0.480384461415261  0.733799385705343
  0.016522170993716  0.320772648980776  0.000000000000000  0.947156221362588
   total no. of   reducible points:  74; test:  1.00000000
  0.011544011544012  1.000000000000000  0.000000000000000  0.000000000000000
  0.011943909085856  0.577350269189626  0.577350269189626  0.577350269189626
  0.011110555710603  0.369602846454150  0.369602846454150  0.852518311701268
  0.011876501294537  0.694354006602666  0.694354006602666  0.189063552885395
  0.011812303746904  0.374243039090341  0.000000000000000  0.927330657151172
   total no. of   reducible points:  86; test:  1.00000000
  0.003828270494937  1.000000000000000  0.000000000000000  0.000000000000000
  0.009793737512488  0.577350269189626  0.577350269189626  0.577350269189626
  0.008211737283191  0.185115635344736  0.185115635344736  0.965124035086594
  0.009942814891178  0.690421048382292  0.690421048382292  0.215957291845848
  0.009595471336071  0.395689473055942  0.395689473055942  0.828769981252592
  0.009694996361663  0.478369028812150  0.000000000000000  0.878158910604066
   total no. of   reducible points: 110; test:  1.00000000
  0.000599631368862  1.000000000000000  0.000000000000000  0.000000000000000
  0.007372999718621  0.707106781186547  0.707106781186547  0.000000000000000
  0.007210515360144  0.577350269189626  0.577350269189626  0.577350269189626
  0.007116355493118  0.676441040011426  0.676441040011426  0.291298882209527
  0.006753829486314  0.417496122796545  0.417496122796545  0.807089818359583
  0.007574394159054  0.157467667203908  0.157467667203908  0.974888643677173
  0.006991087353303  0.140355381171318  0.449332832326956  0.882270011260323
   total no. of   reducible points: 146; test:  1.00000000
  0.005544842902037  1.000000000000000  0.000000000000000  0.000000000000000
  0.006071332770671  0.707106781186547  0.707106781186547  0.000000000000000
  0.006383674773515  0.577350269189626  0.577350269189626  0.577350269189626
  0.005183387587748  0.255125262111413  0.255125262111413  0.932642590312691
  0.006317929009814  0.674360146036277  0.674360146036277  0.300793595137701
  0.006201670006589  0.431891069671941  0.431891069671941  0.791795559393492
  0.005477143385137  0.261393136033599  0.000000000000000  0.965232421976448
  0.005968383987681  0.499045316179604  0.144663074432512  0.854415804684659
   total no. of   reducible points: 170; test:  1.00000000
  0.001782340447245  1.000000000000000  0.000000000000000  0.000000000000000
  0.005716905949977  0.707106781186547  0.707106781186547  0.000000000000000
  0.005573383178849  0.577350269189626  0.577350269189626  0.577350269189626
  0.005608704082588  0.671297344269523  0.671297344269523  0.314196994182586
  0.005158237711805  0.289246562757544  0.289246562757544  0.912509096867474
  0.005518771467274  0.444693317871744  0.444693317871744  0.777493219314767
  0.004106777028169  0.129933544765007  0.129933544765007  0.982972302707253
  0.005051846064615  0.345770219761128  0.000000000000000  0.938319218137592
  0.005530248916233  0.159041710538353  0.836036015482459  0.525118572443642
   total no. of   reducible points: 194; test:  1.00000000
 -0.055226399197273  1.000000000000000  0.000000000000000  0.000000000000000
  0.004450274607445  0.577350269189626  0.577350269189626  0.577350269189626
  0.004496841067921  0.449204468739761  0.449204468739761  0.772289253148364
  0.005049153450479  0.252041949021020  0.252041949021020  0.934317778845812
  0.003976408018052  0.698190665844724  0.698190665844724  0.158302205463478
  0.004401400650381  0.658740524346096  0.658740524346096  0.363485684956727
  0.017245443505444  0.040385440500977  0.040385440500977  0.998367683967727
  0.004231083095357  0.582384230971558  0.000000000000000  0.812913653173365
  0.005198069864064  0.354587739051869  0.000000000000000  0.935022745880593
  0.004695720972569  0.227218180899819  0.486466153588665  0.843636521068894
   total no. of   reducible points: 230; test:  1.00000000
 -0.001313769127327  1.000000000000000  0.000000000000000  0.000000000000000
 -0.002522728704859  0.707106781186547  0.707106781186547  0.000000000000000
  0.004186853881701  0.577350269189626  0.577350269189626  0.577350269189626
  0.005315167977811  0.703937339158548  0.703937339158548  0.094575076403713
  0.004047142377086  0.101252624857241  0.101252624857241  0.989694807462905
  0.004112482394407  0.464744872642054  0.464744872642054  0.753673939250816
  0.003595584899759  0.327742065497163  0.327742065497163  0.886098344997499
  0.004256131351428  0.662033866369997  0.662033866369997  0.351315128564633
  0.004229582700647  0.850650808352040  0.000000000000000  0.525731112119134
  0.004080914225781  0.323348454269290  0.115311201100970  0.939227929749916
  0.004071467593831  0.231479015871260  0.524493924092236  0.819343388819120
   total no. of   reducible points: 266; test:  1.00000000
  0.000854591172513  1.000000000000000  0.000000000000000  0.000000000000000
  0.003599119285026  0.577350269189626  0.577350269189626  0.577350269189626
  0.003449788424306  0.351564034557011  0.351564034557011  0.867643624544083
  0.003604822601420  0.656632941021961  0.656632941021961  0.371034178384821
  0.003576729661743  0.472905413258100  0.472905413258100  0.743452042987556
  0.002352101413689  0.096183085226148  0.096183085226148  0.990705621379408
  0.003108953122414  0.221964523629418  0.221964523629418  0.949454317226443
  0.003650045807677  0.701176641608955  0.701176641608955  0.129238672710514
  0.002982344963172  0.264415288706066  0.000000000000000  0.964408914879206
  0.003600820932216  0.571895589187896  0.000000000000000  0.820326419827759
  0.003571540554273  0.251003475177047  0.800072749407395  0.544867737258077
  0.003392312205006  0.123354853258333  0.412772408316853  0.902442529533000
   total no. of   reducible points: 302; test:  1.00000000
  0.003006796749454  1.000000000000000  0.000000000000000  0.000000000000000
  0.003050627745651  0.577350269189626  0.577350269189626  0.577350269189626
  0.001621104600289  0.706896546391232  0.706896546391232  0.024383301669356
  0.003005701484902  0.479468262571203  0.479468262571203  0.734996850587746
  0.002990992529654  0.192753315487802  0.192753315487802  0.962129055136014
  0.002982170644108  0.693035796132712  0.693035796132712  0.198501311223365
  0.002721564237311  0.360830211552009  0.360830211552009  0.860001812127547
  0.003033513795811  0.649848616149617  0.649848616149617  0.394199888605839
  0.003007949555219  0.193294501323034  0.000000000000000  0.981140782843257
  0.002881964603055  0.380049491989930  0.000000000000000  0.924966152698679
  0.002958357626536  0.289955882549957  0.793453785658232  0.535123047718276
  0.003036020026407  0.096841214551040  0.828080150668686  0.552182074349399
  0.002832187403926  0.183343464704166  0.907465826530513  0.378009189874487
   total no. of   reducible points: 350; test:  1.00000000
  0.000526589796822  1.000000000000000  0.000000000000000  0.000000000000000
  0.002548219972003  0.707106781186547  0.707106781186547  0.000000000000000
  0.002512317418927  0.577350269189626  0.577350269189626  0.577350269189626
  0.002530403801186  0.690934630750911  0.690934630750911  0.212646824707552
  0.002014279020919  0.177483605460916  0.177483605460916  0.967987158791473
  0.002501725168403  0.491434263778475  0.491434263778475  0.719016501040843
  0.002513267174598  0.645666470742426  0.645666470742426  0.407712664897770
  0.002302694782227  0.286128901030764  0.286128901030764  0.914472801120872
  0.001462495621595  0.075680843671780  0.075680843671780  0.994255912631278
  0.002445373437313  0.392725976336800  0.392725976336800  0.831584400419232
  0.002417442375639  0.881813287779429  0.000000000000000  0.471598691151316
  0.001910951282180  0.977642811118265  0.000000000000000  0.210272522857307
  0.002416930044325  0.205482369640304  0.868946032287241  0.450233038258263
  0.002512236854563  0.590515704892527  0.799927854385729  0.106801826075805
  0.002496644054553  0.555015236107681  0.771746262691590  0.310428403516654
  0.002236607760438  0.937180985855372  0.334436314534346  0.099217696364292
   total no. of   reducible points: 434; test:  1.00000000
  0.000309512129531  1.000000000000000  0.000000000000000  0.000000000000000
  0.001852379698597  0.577350269189626  0.577350269189626  0.577350269189626
  0.001871790639278  0.704095493822747  0.704095493822747  0.092190407076898
  0.001858812585438  0.680774406645524  0.680774406645524  0.270356088359165
  0.001852028828296  0.637254693925875  0.637254693925875  0.433373868777154
  0.001846715956151  0.504441970780036  0.504441970780036  0.700768575373573
  0.001818471778163  0.421576178401097  0.421576178401097  0.802836877335274
  0.001749564657281  0.331792073647212  0.331792073647212  0.883078727934133
  0.001617210647254  0.238473670142189  0.238473670142189  0.941414158220403
  0.001384737234852  0.145903644915776  0.145903644915776  0.978480583762694
  0.000976433116505  0.060950341155072  0.060950341155072  0.996278129754016
  0.001857161196774  0.611684344200988  0.000000000000000  0.791101929626902
  0.001705153996396  0.396475534819986  0.000000000000000  0.918045287711454
  0.001300321685886  0.172478200990772  0.000000000000000  0.985013335028002
  0.001842866472905  0.561026380862206  0.351828092773352  0.749310611904116
  0.001802658934377  0.474239284255198  0.263471665593795  0.840047488359050
  0.001849830560444  0.598412649788538  0.181664084036021  0.780320742479920
  0.001713904507107  0.379103540769556  0.172079522565688  0.909213475092374
  0.001555213603397  0.277867319058624  0.082130215819325  0.957102074310073
  0.001802239128009  0.503356427107512  0.089992058420749  0.859379855890721
   total no. of   reducible points: 590; test:  1.00000000
  qrot: 

              1        2        3      
    1    1.0000   0.0000   0.0000
    2    0.0000   1.0000   0.0000
    3    0.0000   0.0000   1.0000
  me                     0   done genpts
  me                     1   done genpts
  me                     2   done genpts
  me                     6   done genpts
  me                     7   done genpts
  me                     3   done genpts
  me                     4   done genpts
  me                     5   done genpts
  me                     0   done uprt
  me                     1   done uprt
  me                     2   done uprt
  me                     3   done uprt
  me                     4   done uprt
  me                     5   done uprt
  me                     6   done uprt
  me                     7   done uprt
  me                     0  done mem
  me                     1  done mem
  me                     2  done mem
  me                     3  done mem
  me                     4  done mem
  me                     5  done mem
  me                     6  done mem
  me                     7  done mem
  dftinpanae: itol2e                     8  iaoacc                    14  tol_rho    1.0000000000000000E-010

            General Information
            -------------------
          SCF calculation type: DFT
          Wavefunction type:  spin polarized.
          No. of atoms     :     1
          No. of electrons :     5
           Alpha electrons :     3
            Beta electrons :     2
          Charge           :     0
          Spin multiplicity:     2
          Use of symmetry is: off; symmetry adaption is: off
          Maximum number of iterations:  50
          AO basis - number of functions:    55
                     number of shells:    14
          Convergence on energy requested:  1.00D-06
          Convergence on density requested:  1.00D-05
          Convergence on gradient requested:  5.00D-04

              XC Information
              --------------
                     Hartree-Fock (Exact) Exchange  1.000          
                     LC-wPBE(h)Exchange Functional  1.000          
            Perdew 1991 LDA Correlation Functional  1.000 local    
           PerdewBurkeErnz. Correlation Functional  1.000 non-local

           Range-Separation Parameters        
           ---------------------------
           Alpha           :  0.00
           Beta            :  1.00
           Gamma           :  0.37
           Short-Range HF  :     F

             Grid Information
             ----------------
          Grid used for XC integration:  fine      
          Radial quadrature: Mura-Knowles        
          Angular quadrature: Lebedev. 
          Tag              B.-S. Rad. Rad. Pts. Rad. Cut. Ang. Pts.
          ---              ---------- --------- --------- ---------
          B                   0.85       70          12.0       590
          Grid pruning is: on 
          Number of quadrature shells:    70
          Spatial weights used:  Erf1

          Convergence Information
          -----------------------
          Convergence aids based upon iterative change in 
          total energy or number of iterations. 
          Levelshifting, if invoked, occurs when the 
          HOMO/LUMO gap drops below (HL_TOL):  1.00D-02
          DIIS, if invoked, will attempt to extrapolate 
          using up to (NFOCK): 10 stored Fock matrices.

                    Damping( 0%)  Levelshifting(0.5)       DIIS
                  --------------- ------------------- ---------------
          dE  on:    start            ASAP                start   
          dE off:    2 iters         50 iters            50 iters 


      Screening Tolerance Information
      -------------------------------
          Density screening/tol_rho:  1.00D-10
          AO Gaussian exp screening on grid/accAOfunc:  14
          CD Gaussian exp screening on grid/accCDfunc:  20
          XC Gaussian exp screening on grid/accXCfunc:  20
          Schwarz screening/accCoul:  1.00D-08



                         Geometry "geometry" -> "geometry"
                         ---------------------------------

 Output coordinates in angstroms (scale by  1.889725989 to convert to a.u.)

  No.       Tag          Charge          X              Y              Z
 ---- ---------------- ---------- -------------- -------------- --------------
    1 B                    5.0000     0.00000000     0.00000000     0.00000000

      Atomic Mass 
      ----------- 

      B                 11.009310


 Effective nuclear repulsion energy (a.u.)       0.0000000000

            Nuclear Dipole moment (a.u.) 
            ----------------------------
        X                 Y               Z
 ---------------- ---------------- ----------------
     0.0000000000     0.0000000000     0.0000000000

  
  CAM type calculations without CDFIT are
  only available with the direct option.
  Forcing Direct SCF
  


     <<<<<<    Before call to DFT_SCF.    >>>>>>
     <<<<<< date:  May  8  time: 11:46:59 >>>>>>


 Setting tolerance for linear dependence to 1.00D-05



 Setting tolerance for linear dependence to 1.00D-05



 Setting tolerance for linear dependence to 1.00D-05

 Setting tolerance for linear dependence to 1.00D-05
 Setting tolerance for linear dependence to 1.00D-05
 Setting tolerance for linear dependence to 1.00D-05
 Setting tolerance for linear dependence to 1.00D-05
 Setting tolerance for linear dependence to 1.00D-05
  lindep tolerance =    1.0000000000000001E-005
  lindep tolerance =    1.0000000000000001E-005
  lindep tolerance =    1.0000000000000001E-005
  lindep tolerance =    1.0000000000000001E-005
  lindep tolerance =    1.0000000000000001E-005
  lindep tolerance =    1.0000000000000001E-005
  lindep tolerance =    1.0000000000000001E-005
  lindep tolerance =    1.0000000000000001E-005


     <<<<<<    Before 3c-2e initialize.   >>>>>>
     <<<<<< date:  May  8  time: 11:46:59 >>>>>>


 Setting fock-build task_bf   :      -1
                    maxquartet:   10000
                    maxeri    :  129600
                    maxscr    :       0
                    intacc    : 0.0D+00
                    denscreen : T
                    dentol    : 1.0D-06


      Superposition of Atomic Density Guess
      -------------------------------------

 Sum of atomic energies:         -24.53449978

      Non-variational initial energy
      ------------------------------

 Total energy =     -24.358763
 1-e energy   =     -32.376193
 2-e energy   =       8.017430
 HOMO         =      -0.001403
 LUMO         =      -0.001403


 Setting fock-build task_bf   :      -1
                    maxquartet:   10000
                    maxeri    :  129600
                    maxscr    :       0
                    intacc    : 0.0D+00
                    denscreen : T
                    dentol    : 1.0D-06


 Wrote molecular orbitals to ./b.movecs

  WARNING: movecs_in_org=atomic not equal to movecs_in=./b.movecs
   Time after variat. SCF:      0.2

 Setting fock-build task_bf   :      -1
                    maxquartet:   10000
                    maxeri    :  129600
                    maxscr    :       0
                    intacc    : 0.0D+00
                    denscreen : T
                    dentol    : 1.0D-06

   Time prior to 1st pass:      0.2


     <<<<<<      Before SCF iter loop.    >>>>>>
     <<<<<< date:  May  8  time: 11:46:59 >>>>>>

           DAMPING=T LEVELSHIFTING=F DIISING=T
          itol2e= 8 iAOacc=12 iXCacc=20


     <<<<<<            calling 1-e int    >>>>>>
     <<<<<< date:  May  8  time: 11:46:59 >>>>>>

    Kinetic Matrix Time:          0.0s

           Kinetic energy =     24.133789222759

    Potential Matrix Time:          0.0s


     <<<<<<    Before call to GETVXC.     >>>>>>
     <<<<<< date:  May  8  time: 11:46:59 >>>>>>



     <<<<<<    Before call to fock_2e.    >>>>>>
     <<<<<< date:  May  8  time: 11:46:59 >>>>>>



     <<<<<<     After call to fock_2e.    >>>>>>
     <<<<<< date:  May  8  time: 11:47:00 >>>>>>

    Fock_2e Build Time:          0.1s
  *** grid_quadv0:                    calc_type:                    1
  *** grid_quadv0:                    grid_written: F
  *** grid_quadv0:                    grad: T
  *** grid_quadv0:                    kske: F
  *** grid_quadv0:                    calc_type:                    1
  *** grid_quadv0:                    grid_written: F
  *** grid_quadv0:                    grad: T
  *** grid_quadv0:                    kske: F
  *** grid_quadv0:                    kslap: F
  *** grid_quadv0:                    kslap: F
  *** grid_quadv0:                    do_scf: T
  *** grid_quadv0:                    fde_option:                    0
  *** grid_quadv0:                    n_per_rec:                 3070
  *** grid_quadv0:                    calc_type:                    1
  *** grid_quadv0:                    grid_written: F
  *** grid_quadv0:                    grad: T
  *** grid_quadv0:                    kske: F
  *** grid_quadv0:                    kslap: F
  *** grid_quadv0:                    do_scf: T
  *** grid_quadv0:                    fde_option:                    0
  *** grid_quadv0:                    n_per_rec:                 3070
  *** grid_quadv0:                    do_scf: T
  *** grid_quadv0:                    fde_option:                    0
  *** grid_quadv0:                    n_per_rec:                 3070
  *** grid_quadv0:                    calc_type:                    1
  *** grid_quadv0:                    grid_written: F
  *** grid_quadv0:                    grad: T
  *** grid_quadv0:                    kske: F
  *** grid_quadv0:                    kslap: F
  *** grid_quadv0:                    do_scf: T
  *** grid_quadv0:                    fde_option:                    0
  *** grid_quadv0:                    n_per_rec:                 3070
  *** grid_quadv0:                    calc_type:                    1
  *** grid_quadv0:                    grid_written: F
  *** grid_quadv0:                    grad: T
  *** grid_quadv0:                    kske: F
  *** grid_quadv0:                    kslap: F
  *** grid_quadv0:                    do_scf: T
  *** grid_quadv0:                    fde_option:                    0
  *** grid_quadv0:                    n_per_rec:                 3070
  *** grid_quadv0:                    calc_type:                    1
  *** grid_quadv0:                    grid_written: F
  *** grid_quadv0:                    grad: T
  *** grid_quadv0:                    kske: F
  *** grid_quadv0:                    kslap: F
  *** grid_quadv0:                    do_scf: T
  *** grid_quadv0:                    fde_option:                    0
  *** grid_quadv0:                    n_per_rec:                 3070
  *** grid_quadv0:                    calc_type:                    1
  *** grid_quadv0:                    grid_written: F
  *** grid_quadv0:                    grad: T
  *** grid_quadv0:                    kske: F
  *** grid_quadv0:                    kslap: F
  *** grid_quadv0:                    do_scf: T
  *** grid_quadv0:                    fde_option:                    0
  *** grid_quadv0:                    n_per_rec:                 3070
  *** grid_quadv0:                    calc_type:                    1
  *** grid_quadv0:                    grid_written: F
  *** grid_quadv0:                    grad: T
  *** grid_quadv0:                    kske: F
  *** grid_quadv0:                    kslap: F
  *** grid_quadv0:                    do_scf: T
  *** grid_quadv0:                    fde_option:                    0
  *** grid_quadv0:                    n_per_rec:                 3070
   0: nuse=   8 avail= 12500000Mb on .
   1: nuse=   8 avail= 12500000Mb on .
   2: nuse=   8 avail= 12500000Mb on .
   3: nuse=   8 avail= 12500000Mb on .
   4: nuse=   8 avail= 12500000Mb on .
   5: nuse=   8 avail= 12500000Mb on .
   6: nuse=   8 avail= 12500000Mb on .
   7: nuse=   8 avail= 12500000Mb on .
 l_cube input   11.00

  atom type   l_cube   no. cubes   segmts   rad   sub
 ----------- -------- ----------- -------- ----- -----
        1      9.20       124         5      23     8

 Grid_pts file          = ./b.gridpts.0
 Record size in doubles =  12289        No. of grid_pts per rec  =   3070
 Max. records in memory =      3        Max. recs in file   = 126656358

 me   0 NQTOTC NQ/cube    4359      79
 me   1 NQTOTC NQ/cube    2599     216
 me   2 NQTOTC NQ/cube    2181     167
 me   3 NQTOTC NQ/cube    2259     112
 me   4 NQTOTC NQ/cube    1923     240
 me   5 NQTOTC NQ/cube    2513     502
 me   6 NQTOTC NQ/cube    2340     390
 me   7 NQTOTC NQ/cube    2546     509

 XC quadr. integrated density :       5.000000 npts:    20560 nctrs:        1

    Fock_xc Build Time:          0.0s


     <<<<<<    Before call to GETVCOUL.   >>>>>>
     <<<<<< date:  May  8  time: 11:47:00 >>>>>>



     <<<<<<    End of parallel region.    >>>>>>
     <<<<<< date:  May  8  time: 11:47:00 >>>>>>

    Total Fock Matrix Build Time:          0.1s
 Etnew, Ecore, Ecoul, Exc(1), Exc(2), Totsic:   -24.565374205809619       -31.734629671998015        10.880155221249264       -3.7108997550608667        0.0000000000000000        0.0000000000000000     
  delta =   -24.565374205809619     
  delta =   -24.565374205809619     


         Total DFT energy =      -24.565374205810
      One electron energy =      -31.734629671998
           Coulomb energy =       10.880155221249
    Exchange-Corr. energy =       -3.710899755061
 Nuclear repulsion energy =        0.000000000000

  delta =   -24.565374205809619     
  delta =   -24.565374205809619     
  delta =   -24.565374205809619     
  delta =   -24.565374205809619     
  delta =   -24.565374205809619     
  delta =   -24.565374205809619     
 Numeric. integr. density =        4.999999948915

     Total iterative time =      1.4s




     <<<<<<        calling diis driver    >>>>>>
     <<<<<< date:  May  8  time: 11:47:00 >>>>>>

 nhist                     1  pulay matrix 
   0.0000E+00
  -1.0000E+00   5.7082E-02


     <<<<<<         called diis driver    >>>>>>
     <<<<<< date:  May  8  time: 11:47:00 >>>>>>


 global array: fock transf[1:55,1:55],  handle: -940 

            1           2           3           4           5           6  
       ----------- ----------- ----------- ----------- ----------- -----------
   1       2.76897    -0.00000     0.00000     0.00000    -2.12353     0.35871
   2      -0.00000     3.36592    -0.00037    -0.00019    -0.00000     0.00000
   3       0.00000    -0.00037     3.36732     0.00088     0.00000    -0.00000
   4       0.00000    -0.00019     0.00088     3.36629     0.00000     0.00000
   5      -2.12353    -0.00000     0.00000     0.00000     3.51352    -0.78244
   6       0.35871     0.00000    -0.00000     0.00000    -0.78244     0.49176
   7       0.00000     0.31372     0.38725     0.58547     0.00000     0.00000
   8      -0.00000     0.67737     0.00341    -0.36455     0.00000     0.00000
   9       0.00000    -0.18611     0.66387    -0.34054    -0.00000     0.00000
  10      -0.00000    -0.00009     0.00017     0.00016     0.00000     0.00000
  11      -0.00000    -0.00006    -0.00001    -0.00005     0.00000    -0.00000
  12      -0.00000     0.00006    -0.00030    -0.00022     0.00000    -0.00000
  13       0.00000     0.00011    -0.00007    -0.00000     0.00000    -0.00000
  14       0.27266     0.00000    -0.00000    -0.00000    -0.23470     0.61592
  15       0.00000    -0.00506     0.04536    -0.01824     0.00000    -0.00000
  16       0.00000    -0.03158     0.01092     0.03538     0.00000    -0.00000
  17       0.00000    -0.03678    -0.01571    -0.02802     0.00000     0.00000
  18      -0.00010     0.00000     0.00000     0.00000     0.00002    -0.00010
  19      -0.00052    -0.00000    -0.00000    -0.00000     0.00008    -0.00052
  20       0.00025    -0.00000    -0.00000    -0.00000    -0.00004     0.00025
  21      -0.00000    -0.00062    -0.00006     0.00084     0.00000    -0.00000
  22       0.00031    -0.00000    -0.00000    -0.00000    -0.00005     0.00031
  23       0.00051     0.00000     0.00000    -0.00000    -0.00008     0.00051
  24      -0.00000    -0.00038    -0.00046    -0.00078    -0.00000     0.00000
  25       0.00000     0.00102    -0.00036     0.00023     0.00000    -0.00000
  26       0.00000     0.00111    -0.00007     0.00074    -0.00000    -0.00000
  27       0.00012     0.00000     0.00000     0.00000    -0.00031    -0.00016
  28       0.00012    -0.00000    -0.00000    -0.00000    -0.00030    -0.00016
  29       0.00037    -0.00000    -0.00000     0.00000    -0.00094    -0.00049
  30      -0.00000    -0.01056    -0.00043    -0.06337    -0.00000    -0.00000
  31      -0.00000    -0.00103     0.06217     0.00026     0.00000     0.00000
  32      -0.00000    -0.06336    -0.00042     0.01077    -0.00000    -0.00000
  33       0.00000    -0.23219    -0.07153    -0.04206    -0.00000    -0.00000
  34       0.00000    -0.02500    -0.05972     0.23778     0.00000     0.00000
  35      -0.00000    -0.07862     0.22748     0.04720    -0.00000     0.00000
  36       0.07674     0.00000    -0.00000    -0.00000    -0.25528     0.23846
  37      -0.00001    -0.00000    -0.00000     0.00000     0.00004     0.00002
  38       0.00041    -0.00000     0.00000    -0.00000    -0.00106    -0.00055
  39       0.00001    -0.00000    -0.00000    -0.00000     0.00001    -0.00006
  40       0.00007     0.00000     0.00000    -0.00000     0.00016    -0.00075
  41       0.00001    -0.00000    -0.00000    -0.00000     0.00002    -0.00008
  42       0.00000     0.06421    -0.00057     0.00593     0.00000     0.00000
  43      -0.00000     0.00081     0.06377     0.00306    -0.00000     0.00000
  44      -0.00000     0.00569     0.00436    -0.06386     0.00000    -0.00000
  45      -0.00007    -0.00000    -0.00000    -0.00000    -0.00014     0.00066
  46      -0.00004     0.00000     0.00000    -0.00000    -0.00008     0.00039
  47       0.04128     0.00000    -0.00000     0.00000    -0.22073     0.08533
  48       0.00000     0.03594     0.05376     0.03983     0.00000    -0.00000
  49      -0.00000     0.04166    -0.05383     0.03245    -0.00000    -0.00000
  50       0.00000    -0.05098    -0.00520     0.05507     0.00000    -0.00000
  51       0.11031     0.00000    -0.00000    -0.00000    -0.20621     0.08280
  52       0.00000     0.00019    -0.04389    -0.03009     0.00000    -0.00000
  53       0.00000     0.04708    -0.00167    -0.00163     0.00000     0.00000
  54      -0.00000    -0.00068     0.02818    -0.03775    -0.00000    -0.00000
  55      -0.06248    -0.00000     0.00000     0.00000     0.08792    -0.04880

            7           8           9          10          11          12  
       ----------- ----------- ----------- ----------- ----------- -----------
   1       0.00000    -0.00000     0.00000    -0.00000    -0.00000    -0.00000
   2       0.31372     0.67737    -0.18611    -0.00009    -0.00006     0.00006
   3       0.38725     0.00341     0.66387     0.00017    -0.00001    -0.00030
   4       0.58547    -0.36455    -0.34054     0.00016    -0.00005    -0.00022
   5       0.00000     0.00000    -0.00000     0.00000     0.00000     0.00000
   6       0.00000     0.00000     0.00000     0.00000    -0.00000    -0.00000
   7       0.91361    -0.00083     0.00119     0.00029    -0.00005    -0.00041
   8      -0.00083     0.91262    -0.00064    -0.00023    -0.00001     0.00033
   9       0.00119    -0.00064     0.91314     0.00018    -0.00000    -0.00017
  10       0.00029    -0.00023     0.00018     1.56076     0.00001    -0.00059
  11      -0.00005    -0.00001    -0.00000     0.00001     1.56076     0.00037
  12      -0.00041     0.00033    -0.00017    -0.00059     0.00037     1.56113
  13      -0.00004     0.00012    -0.00006    -0.00022    -0.00092     0.00001
  14      -0.00000    -0.00000    -0.00000    -0.00000    -0.00000    -0.00000
  15      -0.03225    -0.02264    -0.23872    -0.00004    -0.00012    -0.00074
  16      -0.09772     0.22179    -0.00727    -0.00126    -0.00007     0.00110
  17       0.21918     0.09544    -0.03908     0.00020    -0.00051    -0.00028
  18      -0.00000    -0.00000     0.00000    -0.00000     0.00000    -0.00000
  19       0.00000     0.00000    -0.00000     0.00000    -0.00000     0.00000
  20       0.00000     0.00000    -0.00000    -0.00000     0.00000    -0.00000
  21       0.00023    -0.00068    -0.00022     0.63853     0.00001    -0.00009
  22       0.00000    -0.00000    -0.00000    -0.00000    -0.00000    -0.00000
  23      -0.00000    -0.00000     0.00000    -0.00000    -0.00000     0.00000
  24      -0.00060     0.00000     0.00019    -0.00007    -0.03419     0.60966
  25       0.00038     0.00058    -0.00039    -0.00008     0.02429     0.18828
  26       0.00058     0.00038    -0.00040    -0.00001    -0.63728    -0.02624
  27      -0.00000    -0.00000     0.00000    -0.00000    -0.00000    -0.00000
  28       0.00000     0.00000    -0.00000    -0.00000    -0.00000     0.00000
  29       0.00000    -0.00000     0.00000    -0.00000     0.00000    -0.00000
  30      -0.22617     0.08836     0.12943    -0.00093     0.00033     0.00106
  31       0.13626    -0.00106     0.23783     0.00050    -0.00003    -0.00049
  32      -0.07688    -0.26063     0.04346     0.00088     0.00038    -0.00035
  33      -0.28968    -0.32861     0.02334     0.00005     0.00060     0.00055
  34       0.25124    -0.24053    -0.26732     0.00028    -0.00036    -0.00002
  35       0.21267    -0.16291     0.34694     0.00035     0.00014    -0.00144
  36      -0.00000    -0.00000    -0.00000    -0.00000     0.00000     0.00000
  37       0.00000     0.00000    -0.00000    -0.00000     0.00000    -0.00000
  38      -0.00000    -0.00000     0.00000    -0.00000     0.00000    -0.00000
  39       0.00000     0.00000    -0.00000     0.00000     0.00000     0.00000
  40      -0.00000     0.00000    -0.00000    -0.00000    -0.00000     0.00000
  41      -0.00000     0.00000    -0.00000     0.00000    -0.00000     0.00000
  42       0.02622     0.04674    -0.01634    -0.00009    -0.00039    -0.00009
  43       0.03082    -0.00082     0.04685    -0.00013     0.00003    -0.00020
  44      -0.03872     0.03087     0.02621    -0.00014     0.00022     0.00004
  45       0.00000    -0.00000     0.00000    -0.00000     0.00000    -0.00000
  46      -0.00000    -0.00000     0.00000    -0.00000    -0.00000     0.00000
  47       0.00000     0.00000     0.00000    -0.00000     0.00000     0.00000
  48       0.10350     0.01898     0.02852     0.00035     0.00006    -0.00063
  49       0.02136     0.03026    -0.10205    -0.00026     0.00013     0.00053
  50       0.02641    -0.10235    -0.02416     0.00003    -0.00004    -0.00025
  51      -0.00000     0.00000    -0.00000     0.00000    -0.00000     0.00000
  52      -0.02316     0.00679    -0.01160    -0.00064     0.00030     0.00135
  53       0.01061     0.02441    -0.00660    -0.00053    -0.00078     0.00005
  54      -0.00928     0.01042     0.02347    -0.00047     0.00048     0.00002
  55       0.00000    -0.00000     0.00000    -0.00000    -0.00000    -0.00000

           13          14          15          16          17          18  
       ----------- ----------- ----------- ----------- ----------- -----------
   1       0.00000     0.27266     0.00000     0.00000     0.00000    -0.00010
   2       0.00011     0.00000    -0.00506    -0.03158    -0.03678     0.00000
   3      -0.00007    -0.00000     0.04536     0.01092    -0.01571     0.00000
   4      -0.00000    -0.00000    -0.01824     0.03538    -0.02802     0.00000
   5       0.00000    -0.23470     0.00000     0.00000     0.00000     0.00002
   6      -0.00000     0.61592    -0.00000    -0.00000     0.00000    -0.00010
   7      -0.00004    -0.00000    -0.03225    -0.09772     0.21918    -0.00000
   8       0.00012    -0.00000    -0.02264     0.22179     0.09544    -0.00000
   9      -0.00006    -0.00000    -0.23872    -0.00727    -0.03908     0.00000
  10      -0.00022    -0.00000    -0.00004    -0.00126     0.00020    -0.00000
  11      -0.00092    -0.00000    -0.00012    -0.00007    -0.00051     0.00000
  12       0.00001    -0.00000    -0.00074     0.00110    -0.00028    -0.00000
  13       1.56079     0.00000     0.00006     0.00048     0.00071    -0.00000
  14       0.00000     3.43263    -0.00000    -0.00000     0.00000    -0.00025
  15       0.00006    -0.00000     1.47967     0.00005    -0.00023     0.00000
  16       0.00048    -0.00000     0.00005     1.48009    -0.00022    -0.00000
  17       0.00071     0.00000    -0.00023    -0.00022     1.47913    -0.00000
  18      -0.00000    -0.00025     0.00000    -0.00000    -0.00000     1.20717
  19      -0.00000    -0.00133    -0.00000    -0.00000     0.00000     0.00048
  20      -0.00000     0.00064    -0.00000     0.00000     0.00000     0.00037
  21      -0.00006    -0.00000    -0.00019    -0.00106     0.00021     0.00000
  22       0.00000     0.00079     0.00000    -0.00000     0.00000     0.00026
  23      -0.00000     0.00130     0.00000    -0.00000     0.00000    -0.00019
  24      -0.18670     0.00000    -0.00034     0.00065    -0.00052     0.00000
  25       0.60955     0.00000     0.00007     0.00062     0.00055     0.00000
  26       0.03514     0.00000    -0.00002     0.00001     0.00016    -0.00000
  27      -0.00000     0.00064    -0.00000    -0.00000    -0.00000     0.49602
  28      -0.00000     0.00062     0.00000    -0.00000    -0.00000    -0.42648
  29       0.00000     0.00197    -0.00000    -0.00000     0.00000    -0.14900
  30      -0.00051    -0.00000    -0.19451     0.31153    -0.35346     0.00000
  31      -0.00018    -0.00000    -0.47018    -0.11646     0.15735    -0.00000
  32      -0.00106    -0.00000    -0.01593    -0.38672    -0.33148     0.00000
  33      -0.00025    -0.00000    -0.04237     0.16537     0.35437    -0.00000
  34       0.00020    -0.00000    -0.22620     0.28040    -0.15724     0.00000
  35      -0.00045     0.00000     0.32132     0.21919    -0.06575     0.00000
  36      -0.00000     0.04606    -0.00000     0.00000    -0.00000     0.00006
  37       0.00000    -0.00008    -0.00000     0.00000    -0.00000     0.00037
  38       0.00000     0.00221     0.00000    -0.00000     0.00000     0.00021
  39       0.00000    -0.00015    -0.00000     0.00000     0.00000    -0.14178
  40       0.00000    -0.00184     0.00000     0.00000    -0.00000     0.05489
  41      -0.00000    -0.00021     0.00000    -0.00000    -0.00000    -0.10656
  42       0.00025     0.00000    -0.00253    -0.01017    -0.01395     0.00000
  43      -0.00006    -0.00000     0.01678     0.00508    -0.00675     0.00000
  44      -0.00012    -0.00000     0.00742    -0.01347     0.00845    -0.00000
  45       0.00000     0.00164     0.00000     0.00000    -0.00000    -0.00024
  46      -0.00000     0.00096     0.00000    -0.00000     0.00000     0.00023
  47      -0.00000    -0.84558     0.00000     0.00000    -0.00000     0.00005
  48      -0.00026    -0.00000     0.03812     0.02068    -0.08357     0.00000
  49      -0.00001     0.00000    -0.08248    -0.01838    -0.04162     0.00000
  50      -0.00001     0.00000    -0.02565     0.08945     0.01094    -0.00000
  51      -0.00000    -0.01461     0.00000     0.00000    -0.00000     0.00016
  52       0.00007     0.00000    -0.02059    -0.02095     0.02304    -0.00000
  53       0.00086     0.00000    -0.00357    -0.02502    -0.02865     0.00000
  54      -0.00044    -0.00000     0.03354    -0.01738     0.01079    -0.00000
  55       0.00000    -0.07703    -0.00000     0.00000    -0.00000     0.00007

           19          20          21          22          23          24  
       ----------- ----------- ----------- ----------- ----------- -----------
   1      -0.00052     0.00025    -0.00000     0.00031     0.00051    -0.00000
   2      -0.00000    -0.00000    -0.00062    -0.00000     0.00000    -0.00038
   3      -0.00000    -0.00000    -0.00006    -0.00000     0.00000    -0.00046
   4      -0.00000    -0.00000     0.00084    -0.00000    -0.00000    -0.00078
   5       0.00008    -0.00004     0.00000    -0.00005    -0.00008    -0.00000
   6      -0.00052     0.00025    -0.00000     0.00031     0.00051     0.00000
   7       0.00000     0.00000     0.00023     0.00000    -0.00000    -0.00060
   8       0.00000     0.00000    -0.00068    -0.00000    -0.00000     0.00000
   9      -0.00000    -0.00000    -0.00022    -0.00000     0.00000     0.00019
  10       0.00000    -0.00000     0.63853    -0.00000    -0.00000    -0.00007
  11      -0.00000     0.00000     0.00001    -0.00000    -0.00000    -0.03419
  12       0.00000    -0.00000    -0.00009    -0.00000     0.00000     0.60966
  13      -0.00000    -0.00000    -0.00006     0.00000    -0.00000    -0.18670
  14      -0.00133     0.00064    -0.00000     0.00079     0.00130     0.00000
  15      -0.00000    -0.00000    -0.00019     0.00000     0.00000    -0.00034
  16      -0.00000     0.00000    -0.00106    -0.00000    -0.00000     0.00065
  17       0.00000     0.00000     0.00021     0.00000     0.00000    -0.00052
  18       0.00048     0.00037     0.00000     0.00026    -0.00019     0.00000
  19       1.20734    -0.00026    -0.00000    -0.00079    -0.00094    -0.00000
  20      -0.00026     1.20687     0.00000    -0.00001     0.00083    -0.00000
  21      -0.00000     0.00000     1.02855    -0.00000    -0.00000    -0.00091
  22      -0.00079    -0.00001    -0.00000     1.20742     0.00017     0.00000
  23      -0.00094     0.00083    -0.00000     0.00017     1.20745    -0.00000
  24      -0.00000    -0.00000    -0.00091     0.00000    -0.00000     1.02891
  25      -0.00000     0.00000    -0.00072    -0.00000     0.00000    -0.00043
  26      -0.00000    -0.00000    -0.00001    -0.00000     0.00000    -0.00014
  27      -0.10465     0.43966     0.00000     0.00016     0.00029     0.00000
  28       0.10545     0.50594    -0.00000    -0.00054     0.00036    -0.00000
  29      -0.65343     0.01081    -0.00000     0.00019     0.00007     0.00000
  30      -0.00000    -0.00000    -0.00002    -0.00000    -0.00000     0.00003
  31       0.00000     0.00000     0.00059     0.00000    -0.00000    -0.00002
  32      -0.00000    -0.00000    -0.00007    -0.00000     0.00000    -0.00042
  33       0.00000     0.00000     0.00019     0.00000    -0.00000     0.00055
  34      -0.00000     0.00000     0.00043     0.00000     0.00000    -0.00020
  35      -0.00000     0.00000     0.00017    -0.00000    -0.00000    -0.00085
  36       0.00031    -0.00015    -0.00000    -0.00018    -0.00030    -0.00000
  37      -0.00022    -0.00051     0.00000     0.56247    -0.36600     0.00000
  38      -0.00021     0.00022    -0.00000     0.36563     0.56152    -0.00000
  39      -0.01301    -0.11871    -0.00000     0.00011     0.00026     0.00000
  40       0.15675    -0.08362     0.00000     0.00020     0.00058    -0.00000
  41       0.09933     0.11633    -0.00000     0.00053    -0.00019    -0.00000
  42      -0.00000    -0.00000    -0.00011    -0.00000     0.00000     0.00002
  43      -0.00000    -0.00000     0.00033    -0.00000    -0.00000    -0.00079
  44       0.00000    -0.00000    -0.00026     0.00000    -0.00000     0.00034
  45       0.00056    -0.00011    -0.00000     0.16320     0.08882    -0.00000
  46       0.00011    -0.00056    -0.00000    -0.08838     0.16332    -0.00000
  47       0.00025    -0.00012     0.00000    -0.00015    -0.00024    -0.00000
  48      -0.00000    -0.00000     0.00027    -0.00000    -0.00000    -0.00098
  49      -0.00000    -0.00000    -0.00010    -0.00000     0.00000     0.00015
  50      -0.00000     0.00000     0.00075    -0.00000     0.00000    -0.00033
  51       0.00083    -0.00040     0.00000    -0.00049    -0.00082     0.00000
  52       0.00000    -0.00000    -0.00019     0.00000     0.00000     0.00014
  53      -0.00000    -0.00000     0.00066    -0.00000     0.00000     0.00071
  54       0.00000    -0.00000     0.00102    -0.00000    -0.00000    -0.00067
  55       0.00035    -0.00017    -0.00000    -0.00021    -0.00035    -0.00000

           25          26          27          28          29          30  
       ----------- ----------- ----------- ----------- ----------- -----------
   1       0.00000     0.00000     0.00012     0.00012     0.00037    -0.00000
   2       0.00102     0.00111     0.00000    -0.00000    -0.00000    -0.01056
   3      -0.00036    -0.00007     0.00000    -0.00000    -0.00000    -0.00043
   4       0.00023     0.00074     0.00000    -0.00000     0.00000    -0.06337
   5       0.00000    -0.00000    -0.00031    -0.00030    -0.00094    -0.00000
   6      -0.00000    -0.00000    -0.00016    -0.00016    -0.00049    -0.00000
   7       0.00038     0.00058    -0.00000     0.00000     0.00000    -0.22617
   8       0.00058     0.00038    -0.00000     0.00000    -0.00000     0.08836
   9      -0.00039    -0.00040     0.00000    -0.00000     0.00000     0.12943
  10      -0.00008    -0.00001    -0.00000    -0.00000    -0.00000    -0.00093
  11       0.02429    -0.63728    -0.00000    -0.00000     0.00000     0.00033
  12       0.18828    -0.02624    -0.00000     0.00000    -0.00000     0.00106
  13       0.60955     0.03514    -0.00000    -0.00000     0.00000    -0.00051
  14       0.00000     0.00000     0.00064     0.00062     0.00197    -0.00000
  15       0.00007    -0.00002    -0.00000     0.00000    -0.00000    -0.19451
  16       0.00062     0.00001    -0.00000    -0.00000    -0.00000     0.31153
  17       0.00055     0.00016    -0.00000    -0.00000     0.00000    -0.35346
  18       0.00000    -0.00000     0.49602    -0.42648    -0.14900     0.00000
  19      -0.00000    -0.00000    -0.10465     0.10545    -0.65343    -0.00000
  20       0.00000    -0.00000     0.43966     0.50594     0.01081    -0.00000
  21      -0.00072    -0.00001     0.00000    -0.00000    -0.00000    -0.00002
  22      -0.00000    -0.00000     0.00016    -0.00054     0.00019    -0.00000
  23       0.00000     0.00000     0.00029     0.00036     0.00007    -0.00000
  24      -0.00043    -0.00014     0.00000    -0.00000     0.00000     0.00003
  25       1.02899     0.00017     0.00000     0.00000    -0.00000     0.00047
  26       0.00017     1.02859     0.00000    -0.00000     0.00000    -0.00073
  27       0.00000     0.00000     0.90354    -0.00007    -0.00045     0.00000
  28       0.00000    -0.00000    -0.00007     0.90260     0.00017    -0.00000
  29      -0.00000     0.00000    -0.00045     0.00017     0.90309    -0.00000
  30       0.00047    -0.00073     0.00000    -0.00000    -0.00000     1.00376
  31       0.00009     0.00001    -0.00000     0.00000    -0.00000     0.00022
  32       0.00023    -0.00070     0.00000    -0.00000     0.00000    -0.00075
  33      -0.00032    -0.00022     0.00000    -0.00000    -0.00000     0.02529
  34       0.00021     0.00013    -0.00000     0.00000    -0.00000    -0.07114
  35      -0.00069    -0.00005     0.00000    -0.00000    -0.00000    -0.01161
  36       0.00000     0.00000    -0.00024    -0.00024    -0.00074    -0.00000
  37      -0.00000    -0.00000    -0.00003    -0.00062     0.00011    -0.00000
  38      -0.00000    -0.00000     0.00042     0.00011     0.00049     0.00000
  39      -0.00000     0.00000    -0.39549    -0.00322     0.09230     0.00000
  40      -0.00000     0.00000    -0.08537    -0.16118    -0.36591    -0.00000
  41       0.00000    -0.00000    -0.03959     0.37473    -0.15622     0.00000
  42       0.00019    -0.00023    -0.00000     0.00000    -0.00000    -0.02332
  43      -0.00048     0.00005    -0.00000     0.00000    -0.00000    -0.00668
  44       0.00010     0.00010    -0.00000    -0.00000     0.00000     0.08835
  45      -0.00000    -0.00000    -0.00011     0.00072     0.00061     0.00000
  46       0.00000     0.00000    -0.00009    -0.00066     0.00057     0.00000
  47      -0.00000    -0.00000    -0.00015    -0.00014    -0.00045     0.00000
  48      -0.00001     0.00059     0.00000     0.00000    -0.00000     0.01941
  49       0.00075     0.00062     0.00000     0.00000    -0.00000     0.01810
  50      -0.00040    -0.00011     0.00000     0.00000    -0.00000     0.01994
  51       0.00000     0.00000    -0.00058    -0.00056    -0.00177     0.00000
  52       0.00054     0.00044    -0.00000    -0.00000     0.00000    -0.00766
  53      -0.00116    -0.00152    -0.00000     0.00000    -0.00000     0.00046
  54       0.00041     0.00092    -0.00000    -0.00000     0.00000    -0.00666
  55      -0.00000    -0.00000    -0.00071    -0.00069    -0.00218    -0.00000

           31          32          33          34          35          36  
       ----------- ----------- ----------- ----------- ----------- -----------
   1      -0.00000    -0.00000     0.00000     0.00000    -0.00000     0.07674
   2      -0.00103    -0.06336    -0.23219    -0.02500    -0.07862     0.00000
   3       0.06217    -0.00042    -0.07153    -0.05972     0.22748    -0.00000
   4       0.00026     0.01077    -0.04206     0.23778     0.04720    -0.00000
   5       0.00000    -0.00000    -0.00000     0.00000    -0.00000    -0.25528
   6       0.00000    -0.00000    -0.00000     0.00000     0.00000     0.23846
   7       0.13626    -0.07688    -0.28968     0.25124     0.21267    -0.00000
   8      -0.00106    -0.26063    -0.32861    -0.24053    -0.16291    -0.00000
   9       0.23783     0.04346     0.02334    -0.26732     0.34694    -0.00000
  10       0.00050     0.00088     0.00005     0.00028     0.00035    -0.00000
  11      -0.00003     0.00038     0.00060    -0.00036     0.00014     0.00000
  12      -0.00049    -0.00035     0.00055    -0.00002    -0.00144     0.00000
  13      -0.00018    -0.00106    -0.00025     0.00020    -0.00045    -0.00000
  14      -0.00000    -0.00000    -0.00000    -0.00000     0.00000     0.04606
  15      -0.47018    -0.01593    -0.04237    -0.22620     0.32132    -0.00000
  16      -0.11646    -0.38672     0.16537     0.28040     0.21919     0.00000
  17       0.15735    -0.33148     0.35437    -0.15724    -0.06575    -0.00000
  18      -0.00000     0.00000    -0.00000     0.00000     0.00000     0.00006
  19       0.00000    -0.00000     0.00000    -0.00000    -0.00000     0.00031
  20       0.00000    -0.00000     0.00000     0.00000     0.00000    -0.00015
  21       0.00059    -0.00007     0.00019     0.00043     0.00017    -0.00000
  22       0.00000    -0.00000     0.00000     0.00000    -0.00000    -0.00018
  23      -0.00000     0.00000    -0.00000     0.00000    -0.00000    -0.00030
  24      -0.00002    -0.00042     0.00055    -0.00020    -0.00085    -0.00000
  25       0.00009     0.00023    -0.00032     0.00021    -0.00069     0.00000
  26       0.00001    -0.00070    -0.00022     0.00013    -0.00005     0.00000
  27      -0.00000     0.00000     0.00000    -0.00000     0.00000    -0.00024
  28       0.00000    -0.00000    -0.00000     0.00000    -0.00000    -0.00024
  29      -0.00000     0.00000    -0.00000    -0.00000    -0.00000    -0.00074
  30       0.00022    -0.00075     0.02529    -0.07114    -0.01161    -0.00000
  31       1.00248    -0.00006    -0.02117    -0.01829     0.07044    -0.00000
  32      -0.00006     1.00366     0.06880     0.01988     0.02643     0.00000
  33      -0.02117     0.06880     1.22349     0.00033    -0.00070     0.00000
  34      -0.01829     0.01988     0.00033     1.22322    -0.00130     0.00000
  35       0.07044     0.02643    -0.00070    -0.00130     1.22381    -0.00000
  36      -0.00000     0.00000     0.00000     0.00000    -0.00000     0.23563
  37      -0.00000    -0.00000    -0.00000     0.00000    -0.00000     0.00003
  38       0.00000    -0.00000    -0.00000    -0.00000     0.00000    -0.00083
  39      -0.00000     0.00000    -0.00000     0.00000     0.00000    -0.00007
  40       0.00000    -0.00000     0.00000    -0.00000    -0.00000    -0.00079
  41      -0.00000     0.00000     0.00000    -0.00000     0.00000    -0.00009
  42      -0.00192    -0.08850    -0.48139    -0.00578    -0.15821    -0.00000
  43       0.09098    -0.00003    -0.15501    -0.09395     0.47045     0.00000
  44       0.00602    -0.02333     0.03428    -0.49782    -0.08408    -0.00000
  45       0.00000    -0.00000    -0.00000     0.00000    -0.00000     0.00070
  46      -0.00000     0.00000    -0.00000    -0.00000     0.00000     0.00041
  47       0.00000     0.00000    -0.00000    -0.00000     0.00000     1.41554
  48      -0.02325     0.01394    -0.10431     0.04036     0.08711    -0.00000
  49       0.02437     0.01526    -0.05329     0.07379    -0.10655     0.00000
  50       0.00362    -0.02629     0.07371     0.10995     0.04179    -0.00000
  51       0.00000     0.00000    -0.00000    -0.00000     0.00000     0.53618
  52       0.01289     0.00219     0.07039    -0.07289    -0.18020     0.00000
  53       0.00245     0.00891    -0.17679    -0.02364    -0.06739     0.00000
  54      -0.00372     0.00098    -0.00383    -0.17484     0.07464    -0.00000
  55      -0.00000    -0.00000     0.00000     0.00000    -0.00000    -0.13333

           37          38          39          40          41          42  
       ----------- ----------- ----------- ----------- ----------- -----------
   1      -0.00001     0.00041     0.00001     0.00007     0.00001     0.00000
   2      -0.00000    -0.00000    -0.00000     0.00000    -0.00000     0.06421
   3      -0.00000     0.00000    -0.00000     0.00000    -0.00000    -0.00057
   4       0.00000    -0.00000    -0.00000    -0.00000    -0.00000     0.00593
   5       0.00004    -0.00106     0.00001     0.00016     0.00002     0.00000
   6       0.00002    -0.00055    -0.00006    -0.00075    -0.00008     0.00000
   7       0.00000    -0.00000     0.00000    -0.00000    -0.00000     0.02622
   8       0.00000    -0.00000     0.00000     0.00000     0.00000     0.04674
   9      -0.00000     0.00000    -0.00000    -0.00000    -0.00000    -0.01634
  10      -0.00000    -0.00000     0.00000    -0.00000     0.00000    -0.00009
  11       0.00000     0.00000     0.00000    -0.00000    -0.00000    -0.00039
  12      -0.00000    -0.00000     0.00000     0.00000     0.00000    -0.00009
  13       0.00000     0.00000     0.00000     0.00000    -0.00000     0.00025
  14      -0.00008     0.00221    -0.00015    -0.00184    -0.00021     0.00000
  15      -0.00000     0.00000    -0.00000     0.00000     0.00000    -0.00253
  16       0.00000    -0.00000     0.00000     0.00000    -0.00000    -0.01017
  17      -0.00000     0.00000     0.00000    -0.00000    -0.00000    -0.01395
  18       0.00037     0.00021    -0.14178     0.05489    -0.10656     0.00000
  19      -0.00022    -0.00021    -0.01301     0.15675     0.09933    -0.00000
  20      -0.00051     0.00022    -0.11871    -0.08362     0.11633    -0.00000
  21       0.00000    -0.00000    -0.00000     0.00000    -0.00000    -0.00011
  22       0.56247     0.36563     0.00011     0.00020     0.00053    -0.00000
  23      -0.36600     0.56152     0.00026     0.00058    -0.00019     0.00000
  24       0.00000    -0.00000     0.00000    -0.00000    -0.00000     0.00002
  25      -0.00000    -0.00000    -0.00000    -0.00000     0.00000     0.00019
  26      -0.00000    -0.00000     0.00000     0.00000    -0.00000    -0.00023
  27      -0.00003     0.00042    -0.39549    -0.08537    -0.03959    -0.00000
  28      -0.00062     0.00011    -0.00322    -0.16118     0.37473     0.00000
  29       0.00011     0.00049     0.09230    -0.36591    -0.15622    -0.00000
  30      -0.00000     0.00000     0.00000    -0.00000     0.00000    -0.02332
  31      -0.00000     0.00000    -0.00000     0.00000    -0.00000    -0.00192
  32      -0.00000    -0.00000     0.00000    -0.00000     0.00000    -0.08850
  33      -0.00000    -0.00000    -0.00000     0.00000     0.00000    -0.48139
  34       0.00000    -0.00000     0.00000    -0.00000    -0.00000    -0.00578
  35      -0.00000     0.00000     0.00000    -0.00000     0.00000    -0.15821
  36       0.00003    -0.00083    -0.00007    -0.00079    -0.00009    -0.00000
  37       0.90353     0.00009    -0.00008    -0.00018     0.00093    -0.00000
  38       0.00009     0.90295     0.00032    -0.00082     0.00000    -0.00000
  39      -0.00008     0.00032     0.45814    -0.00334    -0.00020     0.00000
  40      -0.00018    -0.00082    -0.00334     0.44573    -0.00063    -0.00000
  41       0.00093     0.00000    -0.00020    -0.00063     0.44781    -0.00000
  42      -0.00000    -0.00000     0.00000    -0.00000    -0.00000     0.50177
  43      -0.00000    -0.00000     0.00000    -0.00000    -0.00000     0.00151
  44       0.00000    -0.00000    -0.00000     0.00000    -0.00000    -0.00071
  45       0.19344     0.35949    -0.00163     0.00164    -0.00292    -0.00000
  46      -0.35740     0.19502    -0.00145    -0.00044     0.00452     0.00000
  47       0.00002    -0.00051     0.00005     0.00061     0.00007    -0.00000
  48      -0.00000    -0.00000    -0.00000     0.00000     0.00000    -0.05341
  49      -0.00000    -0.00000    -0.00000     0.00000     0.00000    -0.06118
  50      -0.00000    -0.00000    -0.00000     0.00000     0.00000     0.06221
  51       0.00007    -0.00198    -0.00034    -0.00408    -0.00046    -0.00000
  52      -0.00000    -0.00000    -0.00000     0.00000     0.00000    -0.00457
  53       0.00000    -0.00000     0.00000    -0.00000    -0.00000     0.16851
  54      -0.00000     0.00000    -0.00000     0.00000     0.00000    -0.01623
  55       0.00008    -0.00244    -0.00108    -0.01301    -0.00147    -0.00000

           43          44          45          46          47          48  
       ----------- ----------- ----------- ----------- ----------- -----------
   1      -0.00000    -0.00000    -0.00007    -0.00004     0.04128     0.00000
   2       0.00081     0.00569    -0.00000     0.00000     0.00000     0.03594
   3       0.06377     0.00436    -0.00000     0.00000    -0.00000     0.05376
   4       0.00306    -0.06386    -0.00000    -0.00000     0.00000     0.03983
   5      -0.00000     0.00000    -0.00014    -0.00008    -0.22073     0.00000
   6       0.00000    -0.00000     0.00066     0.00039     0.08533    -0.00000
   7       0.03082    -0.03872     0.00000    -0.00000     0.00000     0.10350
   8      -0.00082     0.03087    -0.00000    -0.00000     0.00000     0.01898
   9       0.04685     0.02621     0.00000     0.00000     0.00000     0.02852
  10      -0.00013    -0.00014    -0.00000    -0.00000    -0.00000     0.00035
  11       0.00003     0.00022     0.00000    -0.00000     0.00000     0.00006
  12      -0.00020     0.00004    -0.00000     0.00000     0.00000    -0.00063
  13      -0.00006    -0.00012     0.00000    -0.00000    -0.00000    -0.00026
  14      -0.00000    -0.00000     0.00164     0.00096    -0.84558    -0.00000
  15       0.01678     0.00742     0.00000     0.00000     0.00000     0.03812
  16       0.00508    -0.01347     0.00000    -0.00000     0.00000     0.02068
  17      -0.00675     0.00845    -0.00000     0.00000    -0.00000    -0.08357
  18       0.00000    -0.00000    -0.00024     0.00023     0.00005     0.00000
  19      -0.00000     0.00000     0.00056     0.00011     0.00025    -0.00000
  20      -0.00000    -0.00000    -0.00011    -0.00056    -0.00012    -0.00000
  21       0.00033    -0.00026    -0.00000    -0.00000     0.00000     0.00027
  22      -0.00000     0.00000     0.16320    -0.08838    -0.00015    -0.00000
  23      -0.00000    -0.00000     0.08882     0.16332    -0.00024    -0.00000
  24      -0.00079     0.00034    -0.00000    -0.00000    -0.00000    -0.00098
  25      -0.00048     0.00010    -0.00000     0.00000    -0.00000    -0.00001
  26       0.00005     0.00010    -0.00000     0.00000    -0.00000     0.00059
  27      -0.00000    -0.00000    -0.00011    -0.00009    -0.00015     0.00000
  28       0.00000    -0.00000     0.00072    -0.00066    -0.00014     0.00000
  29      -0.00000     0.00000     0.00061     0.00057    -0.00045    -0.00000
  30      -0.00668     0.08835     0.00000     0.00000     0.00000     0.01941
  31       0.09098     0.00602     0.00000    -0.00000     0.00000    -0.02325
  32      -0.00003    -0.02333    -0.00000     0.00000     0.00000     0.01394
  33      -0.15501     0.03428    -0.00000    -0.00000    -0.00000    -0.10431
  34      -0.09395    -0.49782     0.00000    -0.00000    -0.00000     0.04036
  35       0.47045    -0.08408    -0.00000     0.00000     0.00000     0.08711
  36       0.00000    -0.00000     0.00070     0.00041     1.41554    -0.00000
  37      -0.00000     0.00000     0.19344    -0.35740     0.00002    -0.00000
  38      -0.00000    -0.00000     0.35949     0.19502    -0.00051    -0.00000
  39       0.00000    -0.00000    -0.00163    -0.00145     0.00005    -0.00000
  40      -0.00000     0.00000     0.00164    -0.00044     0.00061     0.00000
  41      -0.00000    -0.00000    -0.00292     0.00452     0.00007     0.00000
  42       0.00151    -0.00071    -0.00000     0.00000    -0.00000    -0.05341
  43       0.49408     0.00399    -0.00000    -0.00000     0.00000    -0.07317
  44       0.00399     0.50012     0.00000    -0.00000     0.00000     0.04387
  45      -0.00000     0.00000     0.44862    -0.00534    -0.00055    -0.00000
  46      -0.00000    -0.00000    -0.00534     0.45315    -0.00032    -0.00000
  47       0.00000     0.00000    -0.00055    -0.00032    -6.07317     0.00000
  48      -0.07317     0.04387    -0.00000    -0.00000     0.00000     0.17340
  49       0.06771     0.04422    -0.00000     0.00000    -0.00000     0.00568
  50       0.00473     0.08071    -0.00000     0.00000     0.00000    -0.00440
  51       0.00000     0.00000     0.00362     0.00213    -1.68284     0.00000
  52      -0.17677     0.10489     0.00000     0.00000     0.00000     0.05900
  53      -0.00846     0.02220    -0.00000    -0.00000     0.00000    -0.02599
  54       0.09370     0.13941     0.00000    -0.00000    -0.00000     0.00064
  55       0.00000    -0.00000     0.01155     0.00678     0.72510    -0.00000

           49          50          51          52          53          54  
       ----------- ----------- ----------- ----------- ----------- -----------
   1      -0.00000     0.00000     0.11031     0.00000     0.00000    -0.00000
   2       0.04166    -0.05098     0.00000     0.00019     0.04708    -0.00068
   3      -0.05383    -0.00520    -0.00000    -0.04389    -0.00167     0.02818
   4       0.03245     0.05507    -0.00000    -0.03009    -0.00163    -0.03775
   5      -0.00000     0.00000    -0.20621     0.00000     0.00000    -0.00000
   6      -0.00000    -0.00000     0.08280    -0.00000     0.00000    -0.00000
   7       0.02136     0.02641    -0.00000    -0.02316     0.01061    -0.00928
   8       0.03026    -0.10235     0.00000     0.00679     0.02441     0.01042
   9      -0.10205    -0.02416    -0.00000    -0.01160    -0.00660     0.02347
  10      -0.00026     0.00003     0.00000    -0.00064    -0.00053    -0.00047
  11       0.00013    -0.00004    -0.00000     0.00030    -0.00078     0.00048
  12       0.00053    -0.00025     0.00000     0.00135     0.00005     0.00002
  13      -0.00001    -0.00001    -0.00000     0.00007     0.00086    -0.00044
  14       0.00000     0.00000    -0.01461     0.00000     0.00000    -0.00000
  15      -0.08248    -0.02565     0.00000    -0.02059    -0.00357     0.03354
  16      -0.01838     0.08945     0.00000    -0.02095    -0.02502    -0.01738
  17      -0.04162     0.01094    -0.00000     0.02304    -0.02865     0.01079
  18       0.00000    -0.00000     0.00016    -0.00000     0.00000    -0.00000
  19      -0.00000    -0.00000     0.00083     0.00000    -0.00000     0.00000
  20      -0.00000     0.00000    -0.00040    -0.00000    -0.00000    -0.00000
  21      -0.00010     0.00075     0.00000    -0.00019     0.00066     0.00102
  22      -0.00000    -0.00000    -0.00049     0.00000    -0.00000    -0.00000
  23       0.00000     0.00000    -0.00082     0.00000     0.00000    -0.00000
  24       0.00015    -0.00033     0.00000     0.00014     0.00071    -0.00067
  25       0.00075    -0.00040     0.00000     0.00054    -0.00116     0.00041
  26       0.00062    -0.00011     0.00000     0.00044    -0.00152     0.00092
  27       0.00000     0.00000    -0.00058    -0.00000    -0.00000    -0.00000
  28       0.00000     0.00000    -0.00056    -0.00000     0.00000    -0.00000
  29      -0.00000    -0.00000    -0.00177     0.00000    -0.00000     0.00000
  30       0.01810     0.01994     0.00000    -0.00766     0.00046    -0.00666
  31       0.02437     0.00362     0.00000     0.01289     0.00245    -0.00372
  32       0.01526    -0.02629     0.00000     0.00219     0.00891     0.00098
  33      -0.05329     0.07371    -0.00000     0.07039    -0.17679    -0.00383
  34       0.07379     0.10995    -0.00000    -0.07289    -0.02364    -0.17484
  35      -0.10655     0.04179     0.00000    -0.18020    -0.06739     0.07464
  36       0.00000    -0.00000     0.53618     0.00000     0.00000    -0.00000
  37      -0.00000    -0.00000     0.00007    -0.00000     0.00000    -0.00000
  38      -0.00000    -0.00000    -0.00198    -0.00000    -0.00000     0.00000
  39      -0.00000    -0.00000    -0.00034    -0.00000     0.00000    -0.00000
  40       0.00000     0.00000    -0.00408     0.00000    -0.00000     0.00000
  41       0.00000     0.00000    -0.00046     0.00000    -0.00000     0.00000
  42      -0.06118     0.06221    -0.00000    -0.00457     0.16851    -0.01623
  43       0.06771     0.00473     0.00000    -0.17677    -0.00846     0.09370
  44       0.04422     0.08071     0.00000     0.10489     0.02220     0.13941
  45      -0.00000    -0.00000     0.00362     0.00000    -0.00000     0.00000
  46       0.00000     0.00000     0.00213     0.00000    -0.00000    -0.00000
[...]
  35      -0.00000     0.00000     0.16583     0.00000    -0.00000     0.00000
  36       0.92219    -0.47940    -0.00000    -0.18831    -3.12238    -6.42537
  37       0.40659     1.72749    -0.00000    -4.99523    -4.54903     2.35826
  38      -0.55816    -1.51104     0.00000    -5.12264     4.55149    -2.06278
  39      -1.49660     0.79113    -0.00000    -0.18142    -3.11149    -6.41854
  40       2.22964     1.48961     0.00000     0.00107    -0.00995     0.00800
  41      -1.40143     0.99114    -0.00000    -0.19392    -3.11207    -6.41747
  42      -0.24376    -0.49695    -0.00000    -4.98766    -4.54604     2.34631
  43      -0.17423     0.25308     0.00000    -5.11230     4.54990    -2.05330
  44       0.13538    -0.36249    -0.00000    -4.98522    -4.54770     2.34703
  45       0.30895     0.45601     0.00000    -5.11412     4.54772    -2.05221
  46      -0.46233     0.35445    -0.00000    -0.12231    -2.02805    -4.16776
  47      -0.25852    -0.81479    -0.00000    -3.24477    -2.95917     1.52048
  48       0.32765     0.71270     0.00000    -3.32702     2.96020    -1.32997
  49       0.60679    -0.20639    -0.00000    -0.12532    -2.03282    -4.17085
  50      -0.98551    -0.65754    -0.00000    -0.00047     0.00436    -0.00362
  51       0.56473    -0.29468    -0.00000    -0.11985    -2.03257    -4.17134
  52       0.02894     0.16713    -0.00000    -3.24808    -2.96048     1.52589
  53       0.15795    -0.06603     0.00000    -3.33154     2.96090    -1.33426
  54      -0.13864     0.10777    -0.00000    -3.24915    -2.95975     1.52557
  55      -0.05562    -0.15560     0.00000    -3.33074     2.96185    -1.33475

           55  
       -----------
   1       6.36182
   2      15.11084
   3      -5.31820
   4      11.35915
   5       1.25727
   6      -0.00000
   7       0.00000
   8       0.00000
   9       0.00000
  10      -0.00000
  11      -0.00000
  12       0.00000
  13      -0.00000
  14      -0.00000
  15       0.00000
  16       0.00000
  17       0.00000
  18      -4.74462
  19       0.00370
  20      -0.00324
  21      -4.74023
  22       0.00118
  23      -4.74007
  24      -6.08757
  25      -0.00290
  26       0.00254
  27      -6.09101
  28      -0.00093
  29      -6.09113
  30      -1.12371
  31       0.00104
  32      -0.00091
  33      -1.12247
  34       0.00033
  35      -1.12243
  36      -0.00000
  37       0.00000
  38       0.00000
  39      -0.00000
  40      -0.00000
  41      -0.00000
  42       0.00000
  43       0.00000
  44       0.00000
  45       0.00000
  46      -0.00000
  47       0.00000
  48       0.00000
  49      -0.00000
  50       0.00000
  51      -0.00000
  52       0.00000
  53       0.00000
  54       0.00000
  55       0.00000
  int_init: cando_txs set to always be  F
                                NWChem TDDFT Module
                                -------------------


            General Information
            -------------------
           No. of orbitals :     110
            Alpha orbitals :      55
             Beta orbitals :      55
        Alpha frozen cores :       0
         Beta frozen cores :       0
     Alpha frozen virtuals :       0
      Beta frozen virtuals :       0
         Spin multiplicity :       2
    Number of AO functions :      55
        Use of symmetry is : off
      Symmetry adaption is : off
         Schwarz screening :  0.10D-07

              XC Information
              --------------
              Hartree-Fock (Exact) Exchange   1.00          
              LC-wPBE(h)Exchange Functional   1.00          
     Perdew 1991 LDA Correlation Functional   1.00 local    
    PerdewBurkeErnz. Correlation Functional   1.00 non-local
           Alpha           :  0.00
           Beta            :  1.00
           Gamma           :  0.37

             TDDFT Information
             -----------------
          Calculation type : TDDFT             
         Wavefunction type : Unrestricted
          No. of electrons :       5
           Alpha electrons :       3
            Beta electrons :       2
              No. of roots :       5
          Max subspacesize :    5000
            Max iterations :     100
               Target root :       1
           Target symmetry : none
      Symmetry restriction : off
                 Algorithm : Optimal
        Davidson threshold :  0.10D-03

            Memory Information
            ------------------
          Available GA space size is       52428793950 doubles
          Available MA space size is        4194412372 doubles
          Length of a trial vector is          156     106
          Algorithm : Incore multiple tensor contraction
          Estimated peak GA usage is           5750820 doubles
          Estimated peak MA usage is             18000 doubles

    5 smallest eigenvalue differences (eV) 
--------------------------------------------------------
  No. Spin  Occ  Vir  Irrep   E(Occ)    E(Vir)   E(Diff)
--------------------------------------------------------
    1    1    3    4 a        -0.296    -0.008     7.836
    2    1    3    5 a        -0.296    -0.008     7.836
    3    1    3    6 a        -0.296     0.041     9.170
    4    1    3    7 a        -0.296     0.055     9.558
    5    1    3    8 a        -0.296     0.061     9.716
--------------------------------------------------------

  Entering Davidson iterations
  Unrestricted

  Iter   NTrls   NConv    DeltaV     DeltaE      Time   
  ----  ------  ------  ---------  ---------  --------- 
    1      5       0     0.95E-01   0.10+100        1.6
    2     15       0     0.36E-01   0.27E-01        2.6
    3     25       0     0.10E-01   0.25E-02        2.7
    4     33       0     0.84E-02   0.15E-03        2.3
    5     41       4     0.15E-02   0.48E-04        2.3
    6     43       4     0.35E-03   0.14E-05        1.0
    7     45       5     0.90E-04   0.57E-07        1.0
  ----  ------  ------  ---------  ---------  --------- 
  Convergence criterion met

  Ground state a         -24.623840639325 a.u.
  <S2> =   0.7547

  ----------------------------------------------------------------------------
  Root   1         a              0.000064849 a.u.                0.0018 eV 
  <S2> =   0.7551
  ----------------------------------------------------------------------------
     Transition Moments    X -0.00000   Y  0.00000   Z -0.00000
     Transition Moments   XX -8.51929  XY  1.52172  XZ 11.91175
     Transition Moments   YY  0.02651  YZ -4.86637  ZZ  8.49307
     Dipole Oscillator Strength                    0.0000000000
     Electric Quadrupole                           0.0000000000
     Magnetic Dipole                               0.0000000000
     Total Oscillator Strength                     0.0000000000

     Occ.    2 alpha a   ---  Virt.   11 alpha a    0.08766 X
     Occ.    2 alpha a   ---  Virt.   11 alpha a    0.08760 Y
     Occ.    2 alpha a   ---  Virt.   12 alpha a   -0.20734 X
     Occ.    2 alpha a   ---  Virt.   12 alpha a   -0.20720 Y
     Occ.    2 alpha a   ---  Virt.   19 alpha a    0.16444 X
     Occ.    2 alpha a   ---  Virt.   19 alpha a    0.16437 Y
     Occ.    2 alpha a   ---  Virt.   20 alpha a   -0.17648 X
     Occ.    2 alpha a   ---  Virt.   20 alpha a   -0.17640 Y
     Occ.    3 alpha a   ---  Virt.    4 alpha a    4.52350 X
     Occ.    3 alpha a   ---  Virt.    4 alpha a    4.46805 Y
     Occ.    3 alpha a   ---  Virt.    5 alpha a   -4.05239 X
     Occ.    3 alpha a   ---  Virt.    5 alpha a   -4.00272 Y
     Occ.    3 alpha a   ---  Virt.    8 alpha a    1.40862 X
     Occ.    3 alpha a   ---  Virt.    8 alpha a    1.39190 Y
     Occ.    3 alpha a   ---  Virt.    9 alpha a   -1.25977 X
     Occ.    3 alpha a   ---  Virt.    9 alpha a   -1.24482 Y
     Occ.    3 alpha a   ---  Virt.   17 alpha a   -0.63189 X
     Occ.    3 alpha a   ---  Virt.   17 alpha a   -0.62491 Y
     Occ.    3 alpha a   ---  Virt.   18 alpha a    0.56953 X
     Occ.    3 alpha a   ---  Virt.   18 alpha a    0.56324 Y
     Occ.    3 alpha a   ---  Virt.   33 alpha a    0.16213 X
     Occ.    3 alpha a   ---  Virt.   33 alpha a    0.16054 Y
     Occ.    3 alpha a   ---  Virt.   34 alpha a   -0.14453 X
     Occ.    3 alpha a   ---  Virt.   34 alpha a   -0.14312 Y
     Occ.    2 beta  a   ---  Virt.   13 beta  a    0.06150 X
     Occ.    2 beta  a   ---  Virt.   13 beta  a    0.06149 Y
     Occ.    2 beta  a   ---  Virt.   14 beta  a    0.16971 X
     Occ.    2 beta  a   ---  Virt.   14 beta  a    0.16966 Y
     Occ.    2 beta  a   ---  Virt.   21 beta  a    0.23133 X
     Occ.    2 beta  a   ---  Virt.   21 beta  a    0.23129 Y
     Occ.    2 beta  a   ---  Virt.   22 beta  a    0.26486 X
     Occ.    2 beta  a   ---  Virt.   22 beta  a    0.26481 Y
     Occ.    2 beta  a   ---  Virt.   41 beta  a    0.10584 X
     Occ.    2 beta  a   ---  Virt.   41 beta  a    0.10583 Y
     Occ.    2 beta  a   ---  Virt.   42 beta  a    0.11607 X
     Occ.    2 beta  a   ---  Virt.   42 beta  a    0.11606 Y
  ----------------------------------------------------------------------------
  Root   2         a              0.000121262 a.u.                0.0033 eV 
  <S2> =   0.7551
  ----------------------------------------------------------------------------
     Transition Moments    X  0.00000   Y -0.00000   Z  0.00000
     Transition Moments   XX -6.37107  XY -8.46269  XZ -2.06796
     Transition Moments   YY  7.04221  YZ -2.69629  ZZ -0.67109
     Dipole Oscillator Strength                    0.0000000000
     Electric Quadrupole                           0.0000000000
     Magnetic Dipole                               0.0000000000
     Total Oscillator Strength                     0.0000000000

     Occ.    2 alpha a   ---  Virt.   11 alpha a    0.15167 X
     Occ.    2 alpha a   ---  Virt.   11 alpha a    0.15147 Y
     Occ.    2 alpha a   ---  Virt.   12 alpha a    0.06413 X
     Occ.    2 alpha a   ---  Virt.   12 alpha a    0.06404 Y
     Occ.    2 alpha a   ---  Virt.   19 alpha a    0.12907 X
     Occ.    2 alpha a   ---  Virt.   19 alpha a    0.12897 Y
     Occ.    2 alpha a   ---  Virt.   20 alpha a    0.12028 X
     Occ.    2 alpha a   ---  Virt.   20 alpha a    0.12019 Y
     Occ.    3 alpha a   ---  Virt.    4 alpha a    2.97917 X
     Occ.    3 alpha a   ---  Virt.    4 alpha a    2.91124 Y
     Occ.    3 alpha a   ---  Virt.    5 alpha a    3.32576 X
     Occ.    3 alpha a   ---  Virt.    5 alpha a    3.24994 Y
     Occ.    3 alpha a   ---  Virt.    8 alpha a    0.92596 X
     Occ.    3 alpha a   ---  Virt.    8 alpha a    0.90551 Y
     Occ.    3 alpha a   ---  Virt.    9 alpha a    1.03548 X
     Occ.    3 alpha a   ---  Virt.    9 alpha a    1.01262 Y
     Occ.    3 alpha a   ---  Virt.   17 alpha a   -0.41847 X
     Occ.    3 alpha a   ---  Virt.   17 alpha a   -0.40987 Y
     Occ.    3 alpha a   ---  Virt.   18 alpha a   -0.46434 X
     Occ.    3 alpha a   ---  Virt.   18 alpha a   -0.45479 Y
     Occ.    3 alpha a   ---  Virt.   33 alpha a    0.10612 X
     Occ.    3 alpha a   ---  Virt.   33 alpha a    0.10419 Y
     Occ.    3 alpha a   ---  Virt.   34 alpha a    0.11907 X
     Occ.    3 alpha a   ---  Virt.   34 alpha a    0.11691 Y
     Occ.    2 beta  a   ---  Virt.   13 beta  a   -0.12412 X
     Occ.    2 beta  a   ---  Virt.   13 beta  a   -0.12405 Y
     Occ.    2 beta  a   ---  Virt.   21 beta  a   -0.19371 X
     Occ.    2 beta  a   ---  Virt.   21 beta  a   -0.19365 Y
     Occ.    2 beta  a   ---  Virt.   22 beta  a    0.16917 X
     Occ.    2 beta  a   ---  Virt.   22 beta  a    0.16912 Y
     Occ.    2 beta  a   ---  Virt.   41 beta  a   -0.08489 X
     Occ.    2 beta  a   ---  Virt.   41 beta  a   -0.08488 Y
     Occ.    2 beta  a   ---  Virt.   42 beta  a    0.07740 X
     Occ.    2 beta  a   ---  Virt.   42 beta  a    0.07739 Y
  ----------------------------------------------------------------------------
  Root   3         a              0.183781302 a.u.                5.0009 eV 
  <S2> =   0.7606
  ----------------------------------------------------------------------------
     Transition Moments    X  0.78983   Y -0.28886   Z  0.25266
     Transition Moments   XX -0.00000  XY  0.00000  XZ  0.00000
     Transition Moments   YY -0.00000  YZ -0.00000  ZZ  0.00000
     Dipole Oscillator Strength                    0.0944766403
     Electric Quadrupole                           0.0000000000
     Magnetic Dipole                               0.0000000000
     Total Oscillator Strength                     0.0944766403

     Occ.    2 alpha a   ---  Virt.    7 alpha a   -0.05398 X
     Occ.    3 alpha a   ---  Virt.    6 alpha a   -0.93008 X
     Occ.    3 alpha a   ---  Virt.   10 alpha a    0.30973 X
     Occ.    3 alpha a   ---  Virt.   15 alpha a    0.11091 X
     Occ.    2 beta  a   ---  Virt.    5 beta  a   -0.10126 X
     Occ.    2 beta  a   ---  Virt.    9 beta  a   -0.08951 X
  ----------------------------------------------------------------------------
  Root   4         a              0.218201741 a.u.                5.9376 eV 
  <S2> =   0.7557
  ----------------------------------------------------------------------------
     Transition Moments    X  0.00000   Y -0.00000   Z  0.00000
     Transition Moments   XX  0.88056  XY  0.20998  XZ -0.81119
     Transition Moments   YY -0.27134  YZ  0.46686  ZZ -0.60909
     Dipole Oscillator Strength                    0.0000000000
     Electric Quadrupole                           0.0000000846
     Magnetic Dipole                               0.0000000000
     Total Oscillator Strength                     0.0000000846

     Occ.    3 alpha a   ---  Virt.    4 alpha a   -0.29273 X
     Occ.    3 alpha a   ---  Virt.    5 alpha a    0.11435 X
     Occ.    3 alpha a   ---  Virt.    8 alpha a    0.85086 X
     Occ.    3 alpha a   ---  Virt.    9 alpha a   -0.33153 X
     Occ.    3 alpha a   ---  Virt.   17 alpha a   -0.23771 X
     Occ.    3 alpha a   ---  Virt.   18 alpha a    0.09367 X
  ----------------------------------------------------------------------------
  Root   5         a              0.218201827 a.u.                5.9376 eV 
  <S2> =   0.7557
  ----------------------------------------------------------------------------
     Transition Moments    X -0.00000   Y  0.00000   Z -0.00000
     Transition Moments   XX  0.41290  XY  0.90744  XZ  0.54449
     Transition Moments   YY -0.71896  YZ  0.13946  ZZ  0.30612
     Dipole Oscillator Strength                    0.0000000000
     Electric Quadrupole                           0.0000000846
     Magnetic Dipole                               0.0000000000
     Total Oscillator Strength                     0.0000000846

     Occ.    3 alpha a   ---  Virt.    4 alpha a   -0.11435 X
     Occ.    3 alpha a   ---  Virt.    5 alpha a   -0.29273 X
     Occ.    3 alpha a   ---  Virt.    8 alpha a    0.33153 X
     Occ.    3 alpha a   ---  Virt.    9 alpha a    0.85087 X
     Occ.    3 alpha a   ---  Virt.   17 alpha a   -0.09368 X
     Occ.    3 alpha a   ---  Virt.   18 alpha a   -0.23769 X

              Target root =      1
          Target symmetry = none
      Ground state energy =    -24.623840639325
        Excitation energy =      0.000064849242
     Excited state energy =    -24.623775790083

  stored tddft:energy   -24.623775790083190     

 Task  times  cpu:       12.6s     wall:       15.1s


                                NWChem Input Module
                                -------------------


 Summary of allocated global arrays
-----------------------------------
  No active global arrays


MA_summarize_allocated_blocks: starting scan ...
heap block 'gridpts', handle 81, address 0x138f3ba8:
	type of elements:		double precision
	number of elements:		1048466375
	address of client space:	0x138f3c00
	index for client space:		12862167
	total number of bytes:		8387731096
MA_summarize_allocated_blocks: scan completed: 1 heap block, 0 stack blocks
MA usage statistics:

	allocation statistics:
					      heap	     stack
					      ----	     -----
	current number of blocks	         1	         0
	maximum number of blocks	        18	        54
	current total bytes		8387731096	         0
	maximum total bytes		8388032632	  22513208
	maximum total K-bytes		   8388033	     22514
	maximum total M-bytes		      8389	        23


                                     CITATION
                                     --------
                Please cite the following reference when publishing
                           results obtained with NWChem:

          E. Apra, E. J. Bylaska, W. A. de Jong, N. Govind, K. Kowalski,
       T. P. Straatsma, M. Valiev, H. J. J. van Dam, Y. Alexeev, J. Anchell,
       V. Anisimov, F. W. Aquino, R. Atta-Fynn, J. Autschbach, N. P. Bauman,
     J. C. Becca, D. E. Bernholdt, K. Bhaskaran-Nair, S. Bogatko, P. Borowski,
         J. Boschen, J. Brabec, A. Bruner, E. Cauet, Y. Chen, G. N. Chuev,
      C. J. Cramer, J. Daily, M. J. O. Deegan, T. H. Dunning Jr., M. Dupuis,
   K. G. Dyall, G. I. Fann, S. A. Fischer, A. Fonari, H. Fruchtl, L. Gagliardi,
      J. Garza, N. Gawande, S. Ghosh, K. Glaesemann, A. W. Gotz, J. Hammond,
       V. Helms, E. D. Hermes, K. Hirao, S. Hirata, M. Jacquelin, L. Jensen,
   B. G. Johnson, H. Jonsson, R. A. Kendall, M. Klemm, R. Kobayashi, V. Konkov,
      S. Krishnamoorthy, M. Krishnan, Z. Lin, R. D. Lins, R. J. Littlefield,
      A. J. Logsdail, K. Lopata, W. Ma, A. V. Marenich, J. Martin del Campo,
   D. Mejia-Rodriguez, J. E. Moore, J. M. Mullin, T. Nakajima, D. R. Nascimento,
    J. A. Nichols, P. J. Nichols, J. Nieplocha, A. Otero-de-la-Roza, B. Palmer,
    A. Panyala, T. Pirojsirikul, B. Peng, R. Peverati, J. Pittner, L. Pollack,
   R. M. Richard, P. Sadayappan, G. C. Schatz, W. A. Shelton, D. W. Silverstein,
   D. M. A. Smith, T. A. Soares, D. Song, M. Swart, H. L. Taylor, G. S. Thomas,
            V. Tipparaju, D. G. Truhlar, K. Tsemekhman, T. Van Voorhis,
      A. Vazquez-Mayagoitia, P. Verma, O. Villa, A. Vishnu, K. D. Vogiatzis,
        D. Wang, J. H. Weare, M. J. Williamson, T. L. Windus, K. Wolinski,
        A. T. Wong, Q. Wu, C. Yang, Q. Yu, M. Zacharias, Z. Zhang, Y. Zhao,
                                and R. J. Harrison
                        "NWChem: Past, present, and future
                         J. Chem. Phys. 152, 184102 (2020)
                               doi:10.1063/5.0004997

                                      AUTHORS
                                      -------
  E. Apra, E. J. Bylaska, N. Govind, K. Kowalski, M. Valiev, D. Mejia-Rodriguez,
       A. Kunitsa, N. P. Bauman, A. Panyala, W. A. de Jong, T. P. Straatsma,
   H. J. J. van Dam, D. Wang, T. L. Windus, J. Hammond, J. Autschbach, A. Woods,
    K. Bhaskaran-Nair, J. Brabec, K. Lopata, S. A. Fischer, S. Krishnamoorthy,
     M. Jacquelin, W. Ma, M. Klemm, O. Villa, Y. Chen, V. Anisimov, F. Aquino,
     S. Hirata, M. T. Hackler, E. Hermes, L. Jensen, J. E. Moore, J. C. Becca,
      V. Konjkov, T. Risthaus, M. Malagoli, A. Marenich, A. Otero-de-la-Roza,
        J. Mullin, P. Nichols, R. Peverati, J. Pittner, Y. Zhao, P.-D. Fan,
        A. Fonari, M. J. Williamson, R. J. Harrison, J. R. Rehr, M. Dupuis,
     D. Silverstein, D. M. A. Smith, J. Nieplocha, V. Tipparaju, M. Krishnan,
     B. E. Van Kuiken, A. Vazquez-Mayagoitia, M. Swart, Q. Wu, T. Van Voorhis,
     A. A. Auer, M. Nooijen, L. D. Crosby, E. Brown, G. Cisneros, G. I. Fann,
   H. Fruchtl, J. Garza, K. Hirao, R. A. Kendall, J. A. Nichols, K. Tsemekhman,
    K. Wolinski, J. Anchell, D. E. Bernholdt, P. Borowski, T. Clark, D. Clerc,
   H. Dachsel, M. J. O. Deegan, K. Dyall, D. Elwood, E. Glendening, M. Gutowski,
   A. C. Hess, J. Jaffe, B. G. Johnson, J. Ju, R. Kobayashi, R. Kutteh, Z. Lin,
   R. Littlefield, X. Long, B. Meng, T. Nakajima, S. Niu, L. Pollack, M. Rosing,
   K. Glaesemann, G. Sandrone, M. Stave, H. Taylor, G. Thomas, J. H. van Lenthe,
                               A. T. Wong, Z. Zhang.

 Total times  cpu:       12.6s     wall:       15.3s
