 argument  1 = /home/aditisingh4812/nw_chem/nwchem-run/nwchem-run/tddft/open/open_atom/geom-MOL/b.nw
                                         
                                         


             Northwest Computational Chemistry Package (NWChem) 7.2.3
             --------------------------------------------------------


                    Environmental Molecular Sciences Laboratory
                       Pacific Northwest National Laboratory
                                Richland, WA 99352

                              Copyright (c) 1994-2022
                       Pacific Northwest National Laboratory
                            Battelle Memorial Institute

             NWChem is an open-source computational chemistry package
                        distributed under the terms of the
                      Educational Community License (ECL) 2.0
             A copy of the license is included with this distribution
                              in the LICENSE.TXT file

                                  ACKNOWLEDGMENT
                                  --------------

            This software and its documentation were developed at the
            EMSL at Pacific Northwest National Laboratory, a multiprogram
            national laboratory, operated for the U.S. Department of Energy
            by Battelle under Contract Number DE-AC05-76RL01830. Support
            for this work was provided by the Department of Energy Office
            of Biological and Environmental Research, Office of Basic
            Energy Sciences, and the Office of Advanced Scientific Computing.


           Job information
           ---------------

    hostname        = p16
    program         = /home/aditisingh4812/nw_chem/nwchem-7.2.3-release.revision-d690e065-srconly.2024-08-27/nwchem-7.2.3/bin/LINUX64/nwchem
    date            = Tue Apr 15 00:05:17 2025

    compiled        = Mon_Apr_07_18:51:54_2025
    source          = /home/aditisingh4812/nw_chem/nwchem-7.2.3-release.revision-d690e065-srconly.2024-08-27/nwchem-7.2.3
    nwchem branch   = 7.2.3
    nwchem revision = d690e065
    ga revision     = 5.8.0
    use scalapack   = F
    input           = /home/aditisingh4812/nw_chem/nwchem-run/nwchem-run/tddft/open/open_atom/geom-MOL/b.nw
    prefix          = b.
    data base       = ./b.db
    status          = startup
    nproc           =        8
    time left       =     -1s



           Memory information
           ------------------

    heap     = 2621439998 doubles =  20000.0 Mbytes
    stack    = 2621439995 doubles =  20000.0 Mbytes
    global   = 6553600000 doubles =  50000.0 Mbytes (distinct from heap & stack)
    total    = ********** doubles =  90000.0 Mbytes
    verify   = yes
    hardfail = no 


           Directory information
           ---------------------

  0 permanent = .
  0 scratch   = .




                                NWChem Input Module
                                -------------------



 Scaling coordinates for geometry "geometry" by  1.889725989
 (inverse scale =  0.529177249)



                             Geometry "geometry" -> ""
                             -------------------------

 Output coordinates in angstroms (scale by  1.889725989 to convert to a.u.)

  No.       Tag          Charge          X              Y              Z
 ---- ---------------- ---------- -------------- -------------- --------------
    1 B                    5.0000     0.00000000     0.00000000     0.00000000

      Atomic Mass 
      ----------- 

      B                 11.009310


 Effective nuclear repulsion energy (a.u.)       0.0000000000

            Nuclear Dipole moment (a.u.) 
            ----------------------------
        X                 Y               Z
 ---------------- ---------------- ----------------
     0.0000000000     0.0000000000     0.0000000000


            XYZ format geometry
            -------------------
     1
 geometry
 B                     0.00000000     0.00000000     0.00000000



 Summary of "ao basis" -> "" (cartesian)
 ------------------------------------------------------------------------------
       Tag                 Description            Shells   Functions and Types
 ---------------- ------------------------------  ------  ---------------------
 *                        aug-cc-pVTZ                 on all atoms 


  pbe96 is a nonlocal functional; adding pw91lda local functional. 

                                 NWChem DFT Module
                                 -----------------


                      Basis "ao basis" -> "ao basis" (cartesian)
                      -----
  B (Boron)
  ---------
            Exponent  Coefficients 
       -------------- ---------------------------------------------------------
  1 S  5.47300000E+03  0.000555
  1 S  8.20900000E+02  0.004291
  1 S  1.86800000E+02  0.021949
  1 S  5.28300000E+01  0.084441
  1 S  1.70800000E+01  0.238557
  1 S  5.99900000E+00  0.435072
  1 S  2.20800000E+00  0.341955
  1 S  2.41500000E-01 -0.009545

  2 S  5.47300000E+03 -0.000112
  2 S  8.20900000E+02 -0.000868
  2 S  1.86800000E+02 -0.004484
  2 S  5.28300000E+01 -0.017683
  2 S  1.70800000E+01 -0.053639
  2 S  5.99900000E+00 -0.119005
  2 S  2.20800000E+00 -0.165824
  2 S  2.41500000E-01  0.595981

  3 S  5.87900000E-01  1.000000

  4 S  8.61000000E-02  1.000000

  5 S  2.91400000E-02  1.000000

  6 P  1.20500000E+01  0.013118
  6 P  2.61300000E+00  0.079896
  6 P  7.47500000E-01  0.277275

  7 P  2.38500000E-01  1.000000

  8 P  7.69800000E-02  1.000000

  9 P  2.09600000E-02  1.000000

 10 D  6.61000000E-01  1.000000

 11 D  1.99000000E-01  1.000000

 12 D  6.04000000E-02  1.000000

 13 F  4.90000000E-01  1.000000

 14 F  1.63000000E-01  1.000000



 Summary of "ao basis" -> "ao basis" (cartesian)
 ------------------------------------------------------------------------------
       Tag                 Description            Shells   Functions and Types
 ---------------- ------------------------------  ------  ---------------------
 B                        aug-cc-pVTZ               14       55   5s4p3d2f




 Summary of "ao basis" -> "ao basis" (cartesian)
 ------------------------------------------------------------------------------
       Tag                 Description            Shells   Functions and Types
 ---------------- ------------------------------  ------  ---------------------
 B                        aug-cc-pVTZ               14       55   5s4p3d2f




                         Geometry "geometry" -> "geometry"
                         ---------------------------------

 Output coordinates in angstroms (scale by  1.889725989 to convert to a.u.)

  No.       Tag          Charge          X              Y              Z
 ---- ---------------- ---------- -------------- -------------- --------------
    1 B                    5.0000     0.00000000     0.00000000     0.00000000

      Atomic Mass 
      ----------- 

      B                 11.009310


 Effective nuclear repulsion energy (a.u.)       0.0000000000

            Nuclear Dipole moment (a.u.) 
            ----------------------------
        X                 Y               Z
 ---------------- ---------------- ----------------
     0.0000000000     0.0000000000     0.0000000000


                      Basis "ao basis" -> "ao basis" (cartesian)
                      -----
  B (Boron)
  ---------
            Exponent  Coefficients 
       -------------- ---------------------------------------------------------
  1 S  5.47300000E+03  0.256655
  1 S  8.20900000E+02  0.478260
  1 S  1.86800000E+02  0.806000
  1 S  5.28300000E+01  1.202545
  1 S  1.70800000E+01  1.456618
  1 S  5.99900000E+00  1.212014
  1 S  2.20800000E+00  0.450148
  1 S  2.41500000E-01 -0.002390

  2 S  5.47300000E+03 -0.089117
  2 S  8.20900000E+02 -0.166461
  2 S  1.86800000E+02 -0.283318
  2 S  5.28300000E+01 -0.433303
  2 S  1.70800000E+01 -0.563536
  2 S  5.99900000E+00 -0.570427
  2 S  2.20800000E+00 -0.375597
  2 S  2.41500000E-01  0.256741

  3 S  5.87900000E-01  0.478506

  4 S  8.61000000E-02  0.113282

  5 S  2.91400000E-02  0.050266

  6 P  1.20500000E+01  1.245729
  6 P  2.61300000E+00  1.122720
  6 P  7.47500000E-01  0.815167

  7 P  2.38500000E-01  0.237575

  8 P  7.69800000E-02  0.057798

  9 P  2.09600000E-02  0.011368

 10 D  6.61000000E-01  0.797558

 11 D  1.99000000E-01  0.097589

 12 D  6.04000000E-02  0.012112

 13 F  4.90000000E-01  0.295730

 14 F  1.63000000E-01  0.024853



    Basis function labels
    ---------------------
       No.  Atm El Type
       ---  --- -- ----
        1    1 B  s          
        2    1 B  s          
        3    1 B  s          
        4    1 B  s          
        5    1 B  s          
        6    1 B  px         
        7    1 B  py         
        8    1 B  pz         
        9    1 B  px         
       10    1 B  py         
       11    1 B  pz         
       12    1 B  px         
       13    1 B  py         
       14    1 B  pz         
       15    1 B  px         
       16    1 B  py         
       17    1 B  pz         
       18    1 B  dxx        
       19    1 B  dxy        
       20    1 B  dxz        
       21    1 B  dyy        
       22    1 B  dyz        
       23    1 B  dzz        
       24    1 B  dxx        
       25    1 B  dxy        
       26    1 B  dxz        
       27    1 B  dyy        
       28    1 B  dyz        
       29    1 B  dzz        
       30    1 B  dxx        
       31    1 B  dxy        
       32    1 B  dxz        
       33    1 B  dyy        
       34    1 B  dyz        
       35    1 B  dzz        
       36    1 B  fxxx       
       37    1 B  fxxy       
       38    1 B  fxxz       
       39    1 B  fxyy       
       40    1 B  fxyz       
       41    1 B  fxzz       
       42    1 B  fyyy       
       43    1 B  fyyz       
       44    1 B  fyzz       
       45    1 B  fzzz       
       46    1 B  fxxx       
       47    1 B  fxxy       
       48    1 B  fxxz       
       49    1 B  fxyy       
       50    1 B  fxyz       
       51    1 B  fxzz       
       52    1 B  fyyy       
       53    1 B  fyyz       
       54    1 B  fyzz       
       55    1 B  fzzz       
  int_init: cando_txs set to always be  F

 Schwarz integral screening summary 
 ---------------------------------- 

        No. of atom pairs =       1
       No. of shell pairs =     105

 Atomic screening 

   value      no.     value      no.     value      no.     value      no.   
  -------- ------    -------- ------    -------- ------    -------- ------   
  0.00D+00      0    1.00D-13      0    1.00D-12      0    1.00D-11      0
  1.00D-10      0    1.00D-09      0    1.00D-08      0    1.00D-07      0
  1.00D-06      0    1.00D-05      0    1.00D-04      0    1.00D-03      0
  1.00D-02      0    1.00D-01      0    1.00D+00      1    1.00D+01      0


 Shell screening 

   value      no.     value      no.     value      no.     value      no.   
  -------- ------    -------- ------    -------- ------    -------- ------   
  0.00D+00      0    1.00D-13      0    1.00D-12      0    1.00D-11      0
  1.00D-10      0    1.00D-09      0    1.00D-08      0    1.00D-07      0
  1.00D-06      0    1.00D-05      0    1.00D-04      0    1.00D-03      1
  1.00D-02      6    1.00D-01     40    1.00D+00     58    1.00D+01      0


  Caching 1-el integrals 
  atom                     1  - neighbor  & S                     1   10.000000000000000       exp AB    2.0960000000000017E-002   2.0960000000000017E-002
 zmins =     0.020960000    0.020960000 lprod =   2 range =        24.07 acc   0.10D-07
 sh     0.000000000
  Center:                     1  Radial Pts. & Wghts. 
    1        0.000006587           8.5755147E-16
    2        0.000052699           2.1953616E-13
    3        0.000177862           5.6266792E-12
    4        0.000421605           5.6207367E-11
    5        0.000823472           3.3506169E-10
    6        0.001423023           1.4409585E-09
    7        0.002259847           4.9468972E-09
    8        0.003373577           1.4401608E-08
    9        0.004803900           3.6967000E-08
   10        0.006590579           8.5921683E-08
   11        0.008773471           1.8429926E-07
   12        0.011392549           3.6997061E-07
   13        0.014487926           7.0252236E-07
   14        0.018099883           1.2723300E-06
   15        0.022268900           2.2122743E-06
   16        0.027035684           3.7126040E-06
   17        0.032441206           6.0395096E-06
   18        0.038526742           9.5580397E-06
   19        0.045333906           1.4760067E-05
   20        0.052904700           2.2298097E-05
   21        0.061281557           3.3025811E-05
   22        0.070507392           4.8046343E-05
   23        0.080625653           6.8769410E-05
   24        0.091680380           9.6978578E-05
   25        0.103716264           1.3491009E-04
   26        0.116778712           1.8534488E-04
   27        0.130913913           2.5171563E-04
   28        0.146168916           3.3823093E-04
   29        0.162591701           4.5001898E-04
   30        0.180231269           5.9329354E-04
   31        0.199137727           7.7554522E-04
   32        0.219362383           1.0057617E-03
   33        0.240957848           1.2946808E-03
   34        0.263978141           1.6550820E-03
   35        0.288478813           2.1021197E-03
   36        0.314517061           2.6537078E-03
   37        0.342151869           3.3309591E-03
   38        0.371444147           4.1586909E-03
   39        0.402456888           5.1660052E-03
   40        0.435255331           6.3869546E-03
   41        0.469907144           7.8613078E-03
   42        0.506482612           9.6354298E-03
   43        0.545054851           1.1763295E-02
   44        0.585700032           1.4307651E-02
   45        0.628497628           1.7341370E-02
   46        0.673530680           2.0948993E-02
   47        0.720886091           2.5228532E-02
   48        0.770654939           3.0293541E-02
   49        0.822932828           3.6275533E-02
   50        0.877820265           4.3326768E-02
   51        0.935423080           5.1623513E-02
   52        0.995852877           6.1369835E-02
   53        1.059227548           7.2802028E-02
   54        1.125671818           8.6193801E-02
   55        1.195317872           1.0186236E-01
   56        1.268306027           1.2017556E-01
   57        1.344785496           1.4156034E-01
   58        1.424915230           1.6651270E-01
   59        1.508864860           1.9560948E-01
   60        1.596815755           2.2952248E-01
   61        1.688962204           2.6903515E-01
   62        1.785512751           3.1506270E-01
   63        1.886691700           3.6867615E-01
   64        1.992740824           4.3113141E-01
   65        2.103921302           5.0390439E-01
   66        2.220515931           5.8873373E-01
   67        2.342831659           6.8767293E-01
   68        2.471202491           8.0315434E-01
   69        2.605992843           9.3806791E-01
   70        2.747601435           1.0958589E+00
   71        2.896465809           1.2806497E+00
   72        3.053067620           1.4973920E+00
   73        3.217938856           1.7520600E+00
   74        3.391669182           2.0518942E+00
   75        3.574914678           2.4057151E+00
   76        3.768408283           2.8243266E+00
   77        3.972972379           3.3210414E+00
   78        4.189534041           3.9123711E+00
   79        4.419143695           4.6189406E+00
   80        4.662998104           5.4667156E+00
   81        4.922468975           6.4886658E+00
   82        5.199138898           7.7270524E+00
   83        5.494847023           9.2366156E+00
   84        5.811747796           1.1089088E+01
   85        6.152387522           1.3379696E+01
   86        6.519805677           1.6236712E+01
   87        6.917671214           1.9835784E+01
   88        7.350469478           2.4421987E+01
   89        7.823764087           3.0344697E+01
   90        8.344573034           3.8114547E+01
   91        8.921924542           4.8499997E+01
   92        9.567706801           6.2698387E+01
   93       10.298020288           8.2655288E+01
   94       11.135437842           1.1170004E+02
   95       12.113018767           1.5591567E+02
   96       13.282015905           2.2741105E+02
   97       14.728292453           3.5329349E+02
   98       16.612812311           6.0564059E+02
   99       19.296945307           1.2384540E+03
  100       23.933793588           3.8491443E+03
     irreducible set of Lebedev Angular points ;
  0.009523809523810  1.000000000000000  0.000000000000000  0.000000000000000
  0.032142857142857  0.577350269189626  0.577350269189626  0.577350269189626
  0.028571428571429  0.459700843380983  0.000000000000000  0.888073833977115
   total no. of   reducible points:  38; test:  1.00000000
  0.012698412698413  1.000000000000000  0.000000000000000  0.000000000000000
  0.022574955908289  0.707106781186547  0.707106781186547  0.000000000000000
  0.021093750000000  0.577350269189626  0.577350269189626  0.577350269189626
  0.020173335537919  0.301511344577764  0.301511344577764  0.904534033733291
   total no. of   reducible points:  50; test:  1.00000000
  0.000513067179734  1.000000000000000  0.000000000000000  0.000000000000000
  0.016604069565742  0.707106781186547  0.707106781186547  0.000000000000000
 -0.029586038961039  0.577350269189626  0.577350269189626  0.577350269189626
  0.026576207082159  0.480384461415261  0.480384461415261  0.733799385705343
  0.016522170993716  0.320772648980776  0.000000000000000  0.947156221362588
   total no. of   reducible points:  74; test:  1.00000000
  0.011544011544012  1.000000000000000  0.000000000000000  0.000000000000000
  0.011943909085856  0.577350269189626  0.577350269189626  0.577350269189626
  0.011110555710603  0.369602846454150  0.369602846454150  0.852518311701268
  0.011876501294537  0.694354006602666  0.694354006602666  0.189063552885395
  0.011812303746904  0.374243039090341  0.000000000000000  0.927330657151172
   total no. of   reducible points:  86; test:  1.00000000
  0.003828270494937  1.000000000000000  0.000000000000000  0.000000000000000
  0.009793737512488  0.577350269189626  0.577350269189626  0.577350269189626
  0.008211737283191  0.185115635344736  0.185115635344736  0.965124035086594
  0.009942814891178  0.690421048382292  0.690421048382292  0.215957291845848
  0.009595471336071  0.395689473055942  0.395689473055942  0.828769981252592
  0.009694996361663  0.478369028812150  0.000000000000000  0.878158910604066
   total no. of   reducible points: 110; test:  1.00000000
  0.000599631368862  1.000000000000000  0.000000000000000  0.000000000000000
  0.007372999718621  0.707106781186547  0.707106781186547  0.000000000000000
  0.007210515360144  0.577350269189626  0.577350269189626  0.577350269189626
  0.007116355493118  0.676441040011426  0.676441040011426  0.291298882209527
  0.006753829486314  0.417496122796545  0.417496122796545  0.807089818359583
  0.007574394159054  0.157467667203908  0.157467667203908  0.974888643677173
  0.006991087353303  0.140355381171318  0.449332832326956  0.882270011260323
   total no. of   reducible points: 146; test:  1.00000000
  0.005544842902037  1.000000000000000  0.000000000000000  0.000000000000000
  0.006071332770671  0.707106781186547  0.707106781186547  0.000000000000000
  0.006383674773515  0.577350269189626  0.577350269189626  0.577350269189626
  0.005183387587748  0.255125262111413  0.255125262111413  0.932642590312691
  0.006317929009814  0.674360146036277  0.674360146036277  0.300793595137701
  0.006201670006589  0.431891069671941  0.431891069671941  0.791795559393492
  0.005477143385137  0.261393136033599  0.000000000000000  0.965232421976448
  0.005968383987681  0.499045316179604  0.144663074432512  0.854415804684659
   total no. of   reducible points: 170; test:  1.00000000
  0.001782340447245  1.000000000000000  0.000000000000000  0.000000000000000
  0.005716905949977  0.707106781186547  0.707106781186547  0.000000000000000
  0.005573383178849  0.577350269189626  0.577350269189626  0.577350269189626
  0.005608704082588  0.671297344269523  0.671297344269523  0.314196994182586
  0.005158237711805  0.289246562757544  0.289246562757544  0.912509096867474
  0.005518771467274  0.444693317871744  0.444693317871744  0.777493219314767
  0.004106777028169  0.129933544765007  0.129933544765007  0.982972302707253
  0.005051846064615  0.345770219761128  0.000000000000000  0.938319218137592
  0.005530248916233  0.159041710538353  0.836036015482459  0.525118572443642
   total no. of   reducible points: 194; test:  1.00000000
 -0.055226399197273  1.000000000000000  0.000000000000000  0.000000000000000
  0.004450274607445  0.577350269189626  0.577350269189626  0.577350269189626
  0.004496841067921  0.449204468739761  0.449204468739761  0.772289253148364
  0.005049153450479  0.252041949021020  0.252041949021020  0.934317778845812
  0.003976408018052  0.698190665844724  0.698190665844724  0.158302205463478
  0.004401400650381  0.658740524346096  0.658740524346096  0.363485684956727
  0.017245443505444  0.040385440500977  0.040385440500977  0.998367683967727
  0.004231083095357  0.582384230971558  0.000000000000000  0.812913653173365
  0.005198069864064  0.354587739051869  0.000000000000000  0.935022745880593
  0.004695720972569  0.227218180899819  0.486466153588665  0.843636521068894
   total no. of   reducible points: 230; test:  1.00000000
 -0.001313769127327  1.000000000000000  0.000000000000000  0.000000000000000
 -0.002522728704859  0.707106781186547  0.707106781186547  0.000000000000000
  0.004186853881701  0.577350269189626  0.577350269189626  0.577350269189626
  0.005315167977811  0.703937339158548  0.703937339158548  0.094575076403713
  0.004047142377086  0.101252624857241  0.101252624857241  0.989694807462905
  0.004112482394407  0.464744872642054  0.464744872642054  0.753673939250816
  0.003595584899759  0.327742065497163  0.327742065497163  0.886098344997499
  0.004256131351428  0.662033866369997  0.662033866369997  0.351315128564633
  0.004229582700647  0.850650808352040  0.000000000000000  0.525731112119134
  0.004080914225781  0.323348454269290  0.115311201100970  0.939227929749916
  0.004071467593831  0.231479015871260  0.524493924092236  0.819343388819120
   total no. of   reducible points: 266; test:  1.00000000
  0.000854591172513  1.000000000000000  0.000000000000000  0.000000000000000
  0.003599119285026  0.577350269189626  0.577350269189626  0.577350269189626
  0.003449788424306  0.351564034557011  0.351564034557011  0.867643624544083
  0.003604822601420  0.656632941021961  0.656632941021961  0.371034178384821
  0.003576729661743  0.472905413258100  0.472905413258100  0.743452042987556
  0.002352101413689  0.096183085226148  0.096183085226148  0.990705621379408
  0.003108953122414  0.221964523629418  0.221964523629418  0.949454317226443
  0.003650045807677  0.701176641608955  0.701176641608955  0.129238672710514
  0.002982344963172  0.264415288706066  0.000000000000000  0.964408914879206
  0.003600820932216  0.571895589187896  0.000000000000000  0.820326419827759
  0.003571540554273  0.251003475177047  0.800072749407395  0.544867737258077
  0.003392312205006  0.123354853258333  0.412772408316853  0.902442529533000
   total no. of   reducible points: 302; test:  1.00000000
  0.003006796749454  1.000000000000000  0.000000000000000  0.000000000000000
  0.003050627745651  0.577350269189626  0.577350269189626  0.577350269189626
  0.001621104600289  0.706896546391232  0.706896546391232  0.024383301669356
  0.003005701484902  0.479468262571203  0.479468262571203  0.734996850587746
  0.002990992529654  0.192753315487802  0.192753315487802  0.962129055136014
  0.002982170644108  0.693035796132712  0.693035796132712  0.198501311223365
  0.002721564237311  0.360830211552009  0.360830211552009  0.860001812127547
  0.003033513795811  0.649848616149617  0.649848616149617  0.394199888605839
  0.003007949555219  0.193294501323034  0.000000000000000  0.981140782843257
  0.002881964603055  0.380049491989930  0.000000000000000  0.924966152698679
  0.002958357626536  0.289955882549957  0.793453785658232  0.535123047718276
  0.003036020026407  0.096841214551040  0.828080150668686  0.552182074349399
  0.002832187403926  0.183343464704166  0.907465826530513  0.378009189874487
   total no. of   reducible points: 350; test:  1.00000000
  0.000526589796822  1.000000000000000  0.000000000000000  0.000000000000000
  0.002548219972003  0.707106781186547  0.707106781186547  0.000000000000000
  0.002512317418927  0.577350269189626  0.577350269189626  0.577350269189626
  0.002530403801186  0.690934630750911  0.690934630750911  0.212646824707552
  0.002014279020919  0.177483605460916  0.177483605460916  0.967987158791473
  0.002501725168403  0.491434263778475  0.491434263778475  0.719016501040843
  0.002513267174598  0.645666470742426  0.645666470742426  0.407712664897770
  0.002302694782227  0.286128901030764  0.286128901030764  0.914472801120872
  0.001462495621595  0.075680843671780  0.075680843671780  0.994255912631278
  0.002445373437313  0.392725976336800  0.392725976336800  0.831584400419232
  0.002417442375639  0.881813287779429  0.000000000000000  0.471598691151316
  0.001910951282180  0.977642811118265  0.000000000000000  0.210272522857307
  0.002416930044325  0.205482369640304  0.868946032287241  0.450233038258263
  0.002512236854563  0.590515704892527  0.799927854385729  0.106801826075805
  0.002496644054553  0.555015236107681  0.771746262691590  0.310428403516654
  0.002236607760438  0.937180985855372  0.334436314534346  0.099217696364292
   total no. of   reducible points: 434; test:  1.00000000
  0.000309512129531  1.000000000000000  0.000000000000000  0.000000000000000
  0.001852379698597  0.577350269189626  0.577350269189626  0.577350269189626
  0.001871790639278  0.704095493822747  0.704095493822747  0.092190407076898
  0.001858812585438  0.680774406645524  0.680774406645524  0.270356088359165
  0.001852028828296  0.637254693925875  0.637254693925875  0.433373868777154
  0.001846715956151  0.504441970780036  0.504441970780036  0.700768575373573
  0.001818471778163  0.421576178401097  0.421576178401097  0.802836877335274
  0.001749564657281  0.331792073647212  0.331792073647212  0.883078727934133
  0.001617210647254  0.238473670142189  0.238473670142189  0.941414158220403
  0.001384737234852  0.145903644915776  0.145903644915776  0.978480583762694
  0.000976433116505  0.060950341155072  0.060950341155072  0.996278129754016
  0.001857161196774  0.611684344200988  0.000000000000000  0.791101929626902
  0.001705153996396  0.396475534819986  0.000000000000000  0.918045287711454
  0.001300321685886  0.172478200990772  0.000000000000000  0.985013335028002
  0.001842866472905  0.561026380862206  0.351828092773352  0.749310611904116
  0.001802658934377  0.474239284255198  0.263471665593795  0.840047488359050
  0.001849830560444  0.598412649788538  0.181664084036021  0.780320742479920
  0.001713904507107  0.379103540769556  0.172079522565688  0.909213475092374
  0.001555213603397  0.277867319058624  0.082130215819325  0.957102074310073
  0.001802239128009  0.503356427107512  0.089992058420749  0.859379855890721
   total no. of   reducible points: 590; test:  1.00000000
  0.000219294208818  1.000000000000000  0.000000000000000  0.000000000000000
  0.001436433617319  0.707106781186547  0.707106781186547  0.000000000000000
  0.001421940344336  0.577350269189626  0.577350269189626  0.577350269189626
  0.000679812351105  0.050872044105024  0.050872044105024  0.997408677652823
  0.000991318423529  0.122819879017883  0.122819879017883  0.984799753572301
  0.001180207833239  0.202689081440879  0.202689081440879  0.958036675983391
  0.001296599602081  0.284774515646429  0.284774515646429  0.915317950483155
  0.001365871427428  0.365671907897803  0.365671907897803  0.855901928697887
  0.001402988604775  0.442826488671347  0.442826488671347  0.779621319527635
  0.001418645563596  0.514061962724974  0.514061962724974  0.686644447264154
  0.001421376741852  0.630640121916680  0.630640121916680  0.452311920313658
  0.001423996475491  0.671688333202261  0.671688333202261  0.312521305001653
  0.001431554042179  0.697979268533688  0.697979268533688  0.160155803498829
  0.000925440149987  0.144686567419531  0.000000000000000  0.989477537495599
  0.001250239995054  0.339026347541122  0.000000000000000  0.940776878793759
  0.001394365843329  0.533580465126351  0.000000000000000  0.845749305193653
  0.001127089094672  0.069440243933494  0.235518789424233  0.969385863498432
  0.001345753760911  0.226900410952946  0.410218247404573  0.883310360522113
  0.001424957283317  0.080255746077753  0.621430241748161  0.779348105702661
  0.001261523341238  0.146799952789657  0.324528434571739  0.934414827052402
  0.001392547106053  0.157150776982473  0.522448218969663  0.838064133458312
  0.001418761677878  0.236570299315725  0.601754663408956  0.762840624604670
  0.001338366684480  0.077148158667657  0.434657551614116  0.897285336132833
  0.001393700862676  0.306293666621073  0.490882658903762  0.815609223203975
  0.001415914757467  0.382247737952479  0.564876814909950  0.731300793659766
   total no. of   reducible points: 770; test:  1.00000000
  0.000143829419053  1.000000000000000  0.000000000000000  0.000000000000000
  0.001125772288287  0.577350269189626  0.577350269189626  0.577350269189626
  0.000494802934195  0.042929635453413  0.042929635453413  0.998155345023847
  0.000735799010913  0.105142685408640  0.105142685408640  0.988883224354686
  0.000888913277130  0.175002486762309  0.175002486762309  0.968890220434707
  0.000988834783892  0.247765337965026  0.247765337965026  0.936602730407163
  0.001053299681709  0.320656712395596  0.320656712395596  0.891267942647606
  0.001092778807015  0.391652074984998  0.391652074984998  0.832596723702352
  0.001114389394063  0.459082587418762  0.459082587418762  0.760582905315251
  0.001123724788052  0.521456388841586  0.521456388841586  0.675400969108414
  0.001125239325244  0.625317024465420  0.625317024465420  0.466858905695743
  0.001126153271816  0.663792674452317  0.663792674452317  0.344613654237438
  0.001130286931124  0.691041039849830  0.691041039849830  0.211954151850184
  0.001134986534364  0.705290700745776  0.705290700745776  0.071624401449956
  0.000682336792711  0.123668676265799  0.000000000000000  0.992323565431490
  0.000945415816045  0.294077711446839  0.000000000000000  0.955781512496548
  0.001074429975386  0.469775384920765  0.000000000000000  0.882785980701182
  0.001129300086569  0.633456324113957  0.000000000000000  0.773778447257375
  0.000843688450090  0.059740486141813  0.202912875277752  0.977372722845310
  0.001075255720449  0.137576040847364  0.460262194248405  0.877058461865803
  0.001108577236864  0.339101652633629  0.503067399966204  0.794942299964208
  0.000956647532378  0.127167519143982  0.281760642244213  0.951020169374390
  0.001080663250717  0.269312074041351  0.433156129172016  0.860143461601762
  0.001126797131196  0.141978645260192  0.625616735858081  0.767102186220558
  0.001022568715358  0.067092846007383  0.379839521685916  0.922616110730809
  0.001108960267713  0.070577381832562  0.551750542142352  0.831017552413474
  0.001122790653436  0.278388847788215  0.602961915615919  0.747620610834086
  0.001032401847117  0.197957893891741  0.358960632958910  0.912118378409121
  0.001107249382284  0.208730706110327  0.534866643813548  0.818748536281022
  0.001121780048520  0.405512213787284  0.567499754607437  0.716591845467024
   total no. of   reducible points: 974; test:  1.00000000
  0.000110518923327  1.000000000000000  0.000000000000000  0.000000000000000
  0.000920523273809  0.707106781186547  0.707106781186547  0.000000000000000
  0.000913315978644  0.577350269189626  0.577350269189626  0.577350269189626
  0.000369042189802  0.037126364496571  0.037126364496571  0.998620681799919
  0.000560399092868  0.091400604122622  0.091400604122622  0.991610739722014
  0.000686529762928  0.153107785246991  0.153107785246991  0.976276606394685
  0.000772033855115  0.218092889166061  0.218092889166061  0.951247067480579
  0.000830154595889  0.283987453220018  0.283987453220018  0.915806886208668
  0.000868669255018  0.349117760096376  0.349117760096376  0.869616915181954
  0.000892707628585  0.412143146144431  0.412143146144431  0.812573722299916
  0.000906082023857  0.471899362714913  0.471899362714913  0.744729469632107
  0.000911977725494  0.527314545284234  0.527314545284234  0.666242253736104
  0.000912872013860  0.620947533244402  0.620947533244402  0.478380938076952
  0.000913071493569  0.656972271185729  0.656972271185729  0.369830866459426
  0.000915287378455  0.684178830907014  0.684178830907014  0.252583955700718
  0.000918743627432  0.701260433012363  0.701260433012363  0.128326186659723
  0.000517697731297  0.107238221547817  0.000000000000000  0.994233354821322
  0.000733114368210  0.258206895949697  0.000000000000000  0.966089643296119
  0.000846323283638  0.417275295530672  0.000000000000000  0.908780131681911
  0.000903112269425  0.570036691179250  0.000000000000000  0.821619237061433
  0.000648577845316  0.982798601826395  0.177177402261533  0.052106394770113
  0.000743503091098  0.962424923032623  0.247571646342629  0.111564095715648
  0.000799852789184  0.940200799412881  0.335461628906649  0.059058888532354
  0.000810173149747  0.932082204014320  0.317361524661198  0.174655167757863
  0.000848338957459  0.904367419939330  0.409026842708536  0.121723505109599
  0.000855629925731  0.891240756007475  0.385429115066922  0.239027847938172
  0.000880320867974  0.867643562846271  0.493222118485128  0.062662506241542
  0.000881104818243  0.858197998604162  0.478532067592243  0.185750519454734
  0.000885028234127  0.839675362404986  0.450742259315706  0.302946697352898
  0.000902134229904  0.816528856402219  0.563212302076210  0.126777480068428
  0.000901009167711  0.801546937078353  0.543430356969390  0.249411216236224
  0.000902269293843  0.777356306907035  0.512351848641987  0.364983226059765
  0.000915801617469  0.766162121390039  0.639427963474910  0.064245492242208
  0.000913157800319  0.755358414353351  0.626980550902439  0.190601822277923
  0.000910781357948  0.734430575755950  0.603116169309631  0.311227594714961
  0.000910576025897  0.704383718402177  0.569370249846844  0.423864478152234
   total no. of   reducible points:1202; test:  1.00000000
  0.000077771607433  1.000000000000000  0.000000000000000  0.000000000000000
  0.000755764641300  0.577350269189626  0.577350269189626  0.577350269189626
  0.000284163380609  0.032292906634139  0.032292906634139  0.998956623864238
  0.000437441912705  0.080367332714622  0.080367332714622  0.993520097262594
  0.000541717474087  0.135428996053165  0.135428996053165  0.981487633165117
  0.000614800089136  0.193896386111443  0.193896386111443  0.961669580940275
  0.000666439448580  0.253734371501127  0.253734371501127  0.933401166400522
  0.000702503935692  0.313525143475257  0.313525143475257  0.896328047546008
  0.000726851178925  0.372155833937534  0.372155833937534  0.850294108254619
  0.000742263753421  0.428680957519570  0.428680957519570  0.795276853253136
  0.000750954503584  0.482251012828299  0.482251012828299  0.731346649169981
  0.000754853505772  0.532067933356626  0.532067933356626  0.658640591360127
  0.000755408896977  0.617299819539427  0.617299819539427  0.487731345715221
  0.000755314717444  0.651067984912748  0.651067984912748  0.390155043595885
  0.000756476765329  0.677731525168736  0.677731525168736  0.285236672931301
  0.000758799180852  0.696310941064874  0.696310941064874  0.174075117999957
  0.000760826183203  0.705893500983175  0.705893500983175  0.058555363028785
  0.000402168044787  0.995554619409186  0.000000000000000  0.094185985013862
  0.000580487179395  0.973411590179421  0.000000000000000  0.229063039585986
  0.000679215195595  0.927569373238863  0.000000000000000  0.373650983980055
  0.000733674121129  0.856802242279510  0.000000000000000  0.515645147000147
  0.000758186630099  0.762349555371937  0.000000000000000  0.647165477620840
  0.000753825785980  0.570752290889222  0.438702803988950  0.694104943230444
  0.000748351724705  0.519646338840308  0.385890841476262  0.762270254565011
  0.000737176366111  0.464633753121535  0.330193737234385  0.821637128756598
  0.000718344889576  0.406390169755769  0.272542357356378  0.872105322408083
  0.000689581552982  0.345632946664309  0.213951023749525  0.913653558859526
  0.000648010580179  0.283139512105033  0.155592230978665  0.946373644151191
  0.000589755889659  0.219768202292533  0.098928789796861  0.970523071240677
  0.000509570884925  0.156469609865035  0.045986429106755  0.986611630545015
  0.000753690642891  0.602735667372129  0.337662514017343  0.722975616397235
  0.000747250596558  0.549603232025510  0.282230130972799  0.786309379645309
  0.000734301713228  0.492170775523457  0.224863234259254  0.840954489612314
  0.000713087158218  0.430942299859848  0.166622472345648  0.886862833757808
  0.000681702203211  0.366410818231367  0.108696490182217  0.924082347686118
  0.000638094114560  0.299018905775844  0.052519897841201  0.952800794667682
  0.000755038137792  0.626872401314500  0.229752365755002  0.744476220506856
  0.000747864664014  0.570732414483461  0.172308060709380  0.802853936449496
  0.000733591872060  0.509636090196037  0.114023846539051  0.852801042441985
  0.000711012052766  0.443872993831246  0.056115220958825  0.894330949550573
  0.000757136397869  0.641997847108239  0.116417442314087  0.757816431224233
  0.000748990832908  0.581721806180261  0.057975895314452  0.811319009870262
   total no. of   reducible points:1454; test:  1.00000000
  qrot: 

              1        2        3      
    1    1.0000   0.0000   0.0000
    2    0.0000   1.0000   0.0000
    3    0.0000   0.0000   1.0000
  me                     0   done genpts
  me                     1   done genpts
  me                     2   done genpts
  me                     3   done genpts
  me                     6   done genpts
  me                     7   done genpts
  me                     4   done genpts
  me                     5   done genpts
  me                     0   done uprt
  me                     1   done uprt
  me                     2   done uprt
  me                     3   done uprt
  me                     4   done uprt
  me                     5   done uprt
  me                     6   done uprt
  me                     7   done uprt
  me                     0  done mem
  me                     1  done mem
  me                     2  done mem
  me                     3  done mem
  me                     4  done mem
  me                     5  done mem
  me                     6  done mem
  me                     7  done mem
  dftinpanae: itol2e                     8  iaoacc                    14  tol_rho    1.0000000000000000E-010

            General Information
            -------------------
          SCF calculation type: DFT
          Wavefunction type:  spin polarized.
          No. of atoms     :     1
          No. of electrons :     5
           Alpha electrons :     3
            Beta electrons :     2
          Charge           :     0
          Spin multiplicity:     2
          Use of symmetry is: off; symmetry adaption is: off
          Maximum number of iterations:  50
          AO basis - number of functions:    55
                     number of shells:    14
          Convergence on energy requested:  1.00D-06
          Convergence on density requested:  1.00D-05
          Convergence on gradient requested:  5.00D-04

              XC Information
              --------------
                     Hartree-Fock (Exact) Exchange  1.000          
                     LC-wPBE(h)Exchange Functional  1.000          
            Perdew 1991 LDA Correlation Functional  1.000 local    
           PerdewBurkeErnz. Correlation Functional  1.000 non-local

           Range-Separation Parameters        
           ---------------------------
           Alpha           :  0.00
           Beta            :  1.00
           Gamma           :  0.39
           Short-Range HF  :     F

             Grid Information
             ----------------
          Grid used for XC integration:  xfine     
          Radial quadrature: Mura-Knowles        
          Angular quadrature: Lebedev. 
          Tag              B.-S. Rad. Rad. Pts. Rad. Cut. Ang. Pts.
          ---              ---------- --------- --------- ---------
          B                   0.85      100          13.0      1454
          Grid pruning is: on 
          Number of quadrature shells:   100
          Spatial weights used:  Erf1

          Convergence Information
          -----------------------
          Convergence aids based upon iterative change in 
          total energy or number of iterations. 
          Levelshifting, if invoked, occurs when the 
          HOMO/LUMO gap drops below (HL_TOL):  1.00D-02
          DIIS, if invoked, will attempt to extrapolate 
          using up to (NFOCK): 10 stored Fock matrices.

                    Damping( 0%)  Levelshifting(0.5)       DIIS
                  --------------- ------------------- ---------------
          dE  on:    start            ASAP                start   
          dE off:    2 iters         50 iters            50 iters 


      Screening Tolerance Information
      -------------------------------
          Density screening/tol_rho:  1.00D-10
          AO Gaussian exp screening on grid/accAOfunc:  14
          CD Gaussian exp screening on grid/accCDfunc:  20
          XC Gaussian exp screening on grid/accXCfunc:  20
          Schwarz screening/accCoul:  1.00D-08



                         Geometry "geometry" -> "geometry"
                         ---------------------------------

 Output coordinates in angstroms (scale by  1.889725989 to convert to a.u.)

  No.       Tag          Charge          X              Y              Z
 ---- ---------------- ---------- -------------- -------------- --------------
    1 B                    5.0000     0.00000000     0.00000000     0.00000000

      Atomic Mass 
      ----------- 

      B                 11.009310


 Effective nuclear repulsion energy (a.u.)       0.0000000000

            Nuclear Dipole moment (a.u.) 
            ----------------------------
        X                 Y               Z
 ---------------- ---------------- ----------------
     0.0000000000     0.0000000000     0.0000000000

  
  CAM type calculations without CDFIT are
  only available with the direct option.
  Forcing Direct SCF
  


     <<<<<<    Before call to DFT_SCF.    >>>>>>
     <<<<<< date:  Apr 15  time: 00:05:18 >>>>>>


 Setting tolerance for linear dependence to 1.00D-05







 Setting tolerance for linear dependence to 1.00D-05
 Setting tolerance for linear dependence to 1.00D-05
 Setting tolerance for linear dependence to 1.00D-05
 Setting tolerance for linear dependence to 1.00D-05
 Setting tolerance for linear dependence to 1.00D-05
 Setting tolerance for linear dependence to 1.00D-05
 Setting tolerance for linear dependence to 1.00D-05
  lindep tolerance =    1.0000000000000001E-005
  lindep tolerance =    1.0000000000000001E-005
  lindep tolerance =    1.0000000000000001E-005
  lindep tolerance =    1.0000000000000001E-005
  lindep tolerance =    1.0000000000000001E-005
  lindep tolerance =    1.0000000000000001E-005
  lindep tolerance =    1.0000000000000001E-005
  lindep tolerance =    1.0000000000000001E-005


     <<<<<<    Before 3c-2e initialize.   >>>>>>
     <<<<<< date:  Apr 15  time: 00:05:18 >>>>>>


 Setting fock-build task_bf   :      -1
                    maxquartet:   10000
                    maxeri    :  129600
                    maxscr    :       0
                    intacc    : 0.0D+00
                    denscreen : T
                    dentol    : 1.0D-06


      Superposition of Atomic Density Guess
      -------------------------------------

 Sum of atomic energies:         -24.53449978

      Non-variational initial energy
      ------------------------------

 Total energy =     -24.358763
 1-e energy   =     -32.376193
 2-e energy   =       8.017430
 HOMO         =      -0.001403
 LUMO         =      -0.001403


 Setting fock-build task_bf   :      -1
                    maxquartet:   10000
                    maxeri    :  129600
                    maxscr    :       0
                    intacc    : 0.0D+00
                    denscreen : T
                    dentol    : 1.0D-06


 Wrote molecular orbitals to ./b.movecs

  WARNING: movecs_in_org=atomic not equal to movecs_in=./b.movecs
   Time after variat. SCF:      0.6

 Setting fock-build task_bf   :      -1
                    maxquartet:   10000
                    maxeri    :  129600
                    maxscr    :       0
                    intacc    : 0.0D+00
                    denscreen : T
                    dentol    : 1.0D-06

   Time prior to 1st pass:      0.6


     <<<<<<      Before SCF iter loop.    >>>>>>
     <<<<<< date:  Apr 15  time: 00:05:18 >>>>>>

           DAMPING=T LEVELSHIFTING=F DIISING=T
          itol2e= 8 iAOacc=12 iXCacc=20


     <<<<<<            calling 1-e int    >>>>>>
     <<<<<< date:  Apr 15  time: 00:05:18 >>>>>>

    Kinetic Matrix Time:          0.0s

           Kinetic energy =     24.133789222759

    Potential Matrix Time:          0.0s


     <<<<<<    Before call to GETVXC.     >>>>>>
     <<<<<< date:  Apr 15  time: 00:05:18 >>>>>>



     <<<<<<    Before call to fock_2e.    >>>>>>
     <<<<<< date:  Apr 15  time: 00:05:18 >>>>>>



     <<<<<<     After call to fock_2e.    >>>>>>
     <<<<<< date:  Apr 15  time: 00:05:18 >>>>>>

    Fock_2e Build Time:          0.1s
  *** grid_quadv0:                    calc_type:                    1
  *** grid_quadv0:                    grid_written: F
  *** grid_quadv0:                    grad: T
  *** grid_quadv0:                    kske: F
  *** grid_quadv0:                    kslap: F
  *** grid_quadv0:                    do_scf: T
  *** grid_quadv0:                    fde_option:                    0
  *** grid_quadv0:                    n_per_rec:                 3070
  *** grid_quadv0:                    calc_type:                    1
  *** grid_quadv0:                    grid_written: F
  *** grid_quadv0:                    grad: T
  *** grid_quadv0:                    kske: F
  *** grid_quadv0:                    kslap: F
  *** grid_quadv0:                    do_scf: T
  *** grid_quadv0:                    fde_option:                    0
  *** grid_quadv0:                    n_per_rec:                 3070
  *** grid_quadv0:                    calc_type:                    1
  *** grid_quadv0:                    grid_written: F
  *** grid_quadv0:                    grad: T
  *** grid_quadv0:                    kske: F
  *** grid_quadv0:                    kslap: F
  *** grid_quadv0:                    do_scf: T
  *** grid_quadv0:                    fde_option:                    0
  *** grid_quadv0:                    n_per_rec:                 3070
  *** grid_quadv0:                    calc_type:                    1
  *** grid_quadv0:                    grid_written: F
  *** grid_quadv0:                    grad: T
  *** grid_quadv0:                    kske: F
  *** grid_quadv0:                    kslap: F
  *** grid_quadv0:                    do_scf: T
  *** grid_quadv0:                    fde_option:                    0
  *** grid_quadv0:                    n_per_rec:                 3070
  *** grid_quadv0:                    calc_type:                    1
  *** grid_quadv0:                    grid_written: F
  *** grid_quadv0:                    grad: T
  *** grid_quadv0:                    kske: F
  *** grid_quadv0:                    kslap: F
  *** grid_quadv0:                    do_scf: T
  *** grid_quadv0:                    fde_option:                    0
  *** grid_quadv0:                    n_per_rec:                 3070
  *** grid_quadv0:                    calc_type:                    1
  *** grid_quadv0:                    grid_written: F
  *** grid_quadv0:                    grad: T
  *** grid_quadv0:                    kske: F
  *** grid_quadv0:                    kslap: F
  *** grid_quadv0:                    do_scf: T
  *** grid_quadv0:                    fde_option:                    0
  *** grid_quadv0:                    n_per_rec:                 3070
  *** grid_quadv0:                    calc_type:                    1
  *** grid_quadv0:                    grid_written: F
  *** grid_quadv0:                    grad: T
  *** grid_quadv0:                    kske: F
  *** grid_quadv0:                    kslap: F
  *** grid_quadv0:                    do_scf: T
  *** grid_quadv0:                    fde_option:                    0
  *** grid_quadv0:                    n_per_rec:                 3070
  *** grid_quadv0:                    calc_type:                    1
  *** grid_quadv0:                    grid_written: F
  *** grid_quadv0:                    grad: T
  *** grid_quadv0:                    kske: F
  *** grid_quadv0:                    kslap: F
  *** grid_quadv0:                    do_scf: T
  *** grid_quadv0:                    fde_option:                    0
  *** grid_quadv0:                    n_per_rec:                 3070
   0: nuse=   8 avail= 12500000Mb on .
   1: nuse=   8 avail= 12500000Mb on .
   2: nuse=   8 avail= 12500000Mb on .
   3: nuse=   8 avail= 12500000Mb on .
   4: nuse=   8 avail= 12500000Mb on .
   5: nuse=   8 avail= 12500000Mb on .
   6: nuse=   8 avail= 12500000Mb on .
   7: nuse=   8 avail= 12500000Mb on .
 l_cube input   11.00

  atom type   l_cube   no. cubes   segmts   rad   sub
 ----------- -------- ----------- -------- ----- -----
        1      9.60       124         5      24     8

 Grid_pts file          = ./b.gridpts.0
 Record size in doubles =  12289        No. of grid_pts per rec  =   3070
 Max. records in memory =      8        Max. recs in file   = 126656358

 me   0 NQTOTC NQ/cube   15250     287
 me   1 NQTOTC NQ/cube    8687     789
 me   2 NQTOTC NQ/cube    8698     869
 me   3 NQTOTC NQ/cube    9059     905
 me   4 NQTOTC NQ/cube    7343     734
 me   5 NQTOTC NQ/cube    6890     530
 me   6 NQTOTC NQ/cube    6780     565
 me   7 NQTOTC NQ/cube    9001    1800

 XC quadr. integrated density :       5.000000 npts:    71306 nctrs:        1

    Fock_xc Build Time:          0.1s


     <<<<<<    Before call to GETVCOUL.   >>>>>>
     <<<<<< date:  Apr 15  time: 00:05:18 >>>>>>



     <<<<<<    End of parallel region.    >>>>>>
     <<<<<< date:  Apr 15  time: 00:05:18 >>>>>>

    Total Fock Matrix Build Time:          0.2s
 Etnew, Ecore, Ecoul, Exc(1), Exc(2), Totsic:   -24.565247574610030       -31.734629671998029        10.880155221249275       -3.7107731238612764        0.0000000000000000        0.0000000000000000     
  delta =   -24.565247574610030     
  delta =   -24.565247574610030     
  delta =   -24.565247574610030     
  delta =   -24.565247574610030     


         Total DFT energy =      -24.565247574610
      One electron energy =      -31.734629671998
           Coulomb energy =       10.880155221249
    Exchange-Corr. energy =       -3.710773123861
 Nuclear repulsion energy =        0.000000000000

 Numeric. integr. density =        4.999999989169

  delta =   -24.565247574610030     
  delta =   -24.565247574610030     
  delta =   -24.565247574610030     
  delta =   -24.565247574610030     
     Total iterative time =      1.5s




     <<<<<<        calling diis driver    >>>>>>
     <<<<<< date:  Apr 15  time: 00:05:18 >>>>>>

 nhist                     1  pulay matrix 
   0.0000E+00
  -1.0000E+00   5.6875E-02


     <<<<<<         called diis driver    >>>>>>
     <<<<<< date:  Apr 15  time: 00:05:18 >>>>>>


 global array: fock transf[1:55,1:55],  handle: -940 

            1           2           3           4           5           6  
       ----------- ----------- ----------- ----------- ----------- -----------
   1       2.77085    -0.00000     0.00000     0.00000    -2.12511     0.35926
   2      -0.00000     3.37115     0.00010     0.00088    -0.00000     0.00000
   3       0.00000     0.00010     3.36866     0.00004     0.00000    -0.00000
   4       0.00000     0.00088     0.00004     3.36882     0.00000     0.00000
   5      -2.12511    -0.00000     0.00000     0.00000     3.51595    -0.78340
   6       0.35926     0.00000    -0.00000     0.00000    -0.78340     0.49236
   7       0.00000     0.31357     0.38827     0.58631     0.00000     0.00000
   8      -0.00000     0.67769     0.00311    -0.36522     0.00000     0.00000
   9       0.00000    -0.18625     0.66517    -0.34054    -0.00000     0.00000
  10      -0.00000    -0.00007    -0.00016    -0.00005    -0.00000     0.00000
  11      -0.00000     0.00005     0.00009     0.00001     0.00000    -0.00000
  12      -0.00000     0.00027     0.00000     0.00010     0.00000     0.00000
  13       0.00000    -0.00041     0.00003    -0.00022    -0.00000    -0.00000
  14       0.27328     0.00000    -0.00000    -0.00000    -0.23559     0.61689
  15       0.00000    -0.00497     0.04475    -0.01838     0.00000    -0.00000
  16       0.00000    -0.03199     0.01094     0.03544     0.00000    -0.00000
  17       0.00000    -0.03685    -0.01550    -0.02791     0.00000     0.00000
  18      -0.00047     0.00000     0.00000     0.00000     0.00018    -0.00066
  19       0.00011    -0.00000    -0.00000    -0.00000    -0.00004     0.00016
  20      -0.00029    -0.00000    -0.00000    -0.00000     0.00011    -0.00041
  21      -0.00000    -0.00006    -0.00125    -0.00021    -0.00000    -0.00000
  22      -0.00044    -0.00000    -0.00000    -0.00000     0.00017    -0.00062
  23      -0.00017     0.00000     0.00000    -0.00000     0.00006    -0.00024
  24      -0.00000     0.00075    -0.00018     0.00033     0.00000     0.00000
  25       0.00000    -0.00043     0.00038    -0.00110     0.00000    -0.00000
  26       0.00000    -0.00016    -0.00066    -0.00000    -0.00000     0.00000
  27      -0.00041     0.00000     0.00000     0.00000     0.00107     0.00060
  28       0.00007    -0.00000    -0.00000    -0.00000    -0.00018    -0.00010
  29      -0.00001    -0.00000    -0.00000     0.00000     0.00002     0.00001
  30       0.00000    -0.01101    -0.00057    -0.06273    -0.00000    -0.00000
  31      -0.00000    -0.00059     0.06481    -0.00025     0.00000     0.00000
  32      -0.00000    -0.06195    -0.00060     0.00954    -0.00000    -0.00000
  33       0.00000    -0.23120    -0.07145    -0.04142    -0.00000    -0.00000
  34       0.00000    -0.02581    -0.05911     0.23865     0.00000     0.00000
  35      -0.00000    -0.07911     0.22859     0.04862    -0.00000     0.00000
  36       0.07714     0.00000    -0.00000    -0.00000    -0.25616     0.23904
  37      -0.00020    -0.00000    -0.00000     0.00000     0.00053     0.00030
  38      -0.00028    -0.00000     0.00000    -0.00000     0.00074     0.00041
  39      -0.00005    -0.00000    -0.00000    -0.00000    -0.00014     0.00075
  40      -0.00001     0.00000     0.00000    -0.00000    -0.00002     0.00012
  41      -0.00001    -0.00000    -0.00000    -0.00000    -0.00004     0.00020
  42       0.00000     0.06313    -0.00086     0.00511     0.00000     0.00000
  43      -0.00000     0.00036     0.06422     0.00378    -0.00000     0.00000
  44       0.00000     0.00632     0.00379    -0.06427    -0.00000    -0.00000
  45       0.00004    -0.00000    -0.00000    -0.00000     0.00013    -0.00065
  46      -0.00001     0.00000     0.00000    -0.00000    -0.00002     0.00009
  47       0.04127     0.00000    -0.00000    -0.00000    -0.22091     0.08541
  48       0.00000     0.03748     0.05294     0.03976     0.00000    -0.00000
  49      -0.00000     0.04277    -0.05329     0.03341    -0.00000    -0.00000
  50       0.00000    -0.05183    -0.00586     0.05478     0.00000    -0.00000
  51       0.11053     0.00000    -0.00000     0.00000    -0.20679     0.08315
  52       0.00000    -0.00231    -0.03835    -0.02787     0.00000    -0.00000
  53       0.00000     0.05321    -0.00030     0.00072     0.00000     0.00000
  54      -0.00000    -0.00190     0.02730    -0.03895    -0.00000    -0.00000
  55      -0.06253    -0.00000     0.00000    -0.00000     0.08814    -0.04889

            7           8           9          10          11          12  
       ----------- ----------- ----------- ----------- ----------- -----------
   1       0.00000    -0.00000     0.00000    -0.00000    -0.00000    -0.00000
   2       0.31357     0.67769    -0.18625    -0.00007     0.00005     0.00027
   3       0.38827     0.00311     0.66517    -0.00016     0.00009     0.00000
   4       0.58631    -0.36522    -0.34054    -0.00005     0.00001     0.00010
   5       0.00000     0.00000    -0.00000    -0.00000     0.00000     0.00000
   6       0.00000     0.00000     0.00000     0.00000    -0.00000     0.00000
   7       0.91474     0.00151    -0.00074    -0.00030     0.00016     0.00040
   8       0.00151     0.91488    -0.00079    -0.00008     0.00004     0.00021
   9      -0.00074    -0.00079     0.91369    -0.00021     0.00012    -0.00022
  10      -0.00030    -0.00008    -0.00021     1.56438    -0.00043    -0.00008
  11       0.00016     0.00004     0.00012    -0.00043     1.56380     0.00019
  12       0.00040     0.00021    -0.00022    -0.00008     0.00019     1.56362
  13      -0.00063    -0.00047     0.00040     0.00005     0.00007    -0.00107
  14       0.00000    -0.00000    -0.00000     0.00000    -0.00000    -0.00000
  15      -0.03294    -0.02236    -0.23988     0.00127    -0.00070     0.00045
  16      -0.09832     0.22189    -0.00715     0.00041    -0.00034    -0.00090
  17       0.21995     0.09542    -0.03894    -0.00089     0.00037     0.00065
  18      -0.00000    -0.00000     0.00000    -0.00000     0.00000    -0.00000
  19       0.00000     0.00000    -0.00000    -0.00000    -0.00000     0.00000
  20       0.00000     0.00000    -0.00000    -0.00000     0.00000    -0.00000
  21      -0.00057     0.00005    -0.00071     0.64102    -0.00015     0.00001
  22       0.00000    -0.00000    -0.00000    -0.00000    -0.00000    -0.00000
  23      -0.00000    -0.00000     0.00000    -0.00000    -0.00000     0.00000
  24       0.00023     0.00008    -0.00029     0.00003    -0.03481     0.61124
  25      -0.00034     0.00015     0.00046    -0.00005     0.02532     0.18821
  26      -0.00026    -0.00005    -0.00040     0.00015    -0.63936    -0.02612
  27      -0.00000    -0.00000     0.00000    -0.00000    -0.00000    -0.00000
  28       0.00000     0.00000    -0.00000    -0.00000    -0.00000     0.00000
  29       0.00000    -0.00000     0.00000    -0.00000     0.00000    -0.00000
  30      -0.22655     0.08820     0.12954     0.00032    -0.00006    -0.00082
  31       0.13706    -0.00051     0.23979    -0.00148     0.00081    -0.00007
  32      -0.07749    -0.26034     0.04371     0.00022    -0.00010    -0.00039
  33      -0.29023    -0.32920     0.02335     0.00024    -0.00028    -0.00128
  34       0.25193    -0.24119    -0.26780    -0.00001    -0.00015    -0.00049
  35       0.21340    -0.16343     0.34784    -0.00027     0.00006    -0.00051
  36      -0.00000    -0.00000    -0.00000     0.00000     0.00000     0.00000
  37       0.00000     0.00000    -0.00000    -0.00000     0.00000    -0.00000
  38      -0.00000    -0.00000     0.00000    -0.00000    -0.00000    -0.00000
  39       0.00000     0.00000    -0.00000     0.00000     0.00000     0.00000
  40      -0.00000     0.00000    -0.00000    -0.00000    -0.00000     0.00000
  41      -0.00000     0.00000    -0.00000     0.00000    -0.00000     0.00000
  42       0.02612     0.04696    -0.01630     0.00004     0.00003     0.00016
  43       0.03103    -0.00100     0.04697    -0.00017     0.00009    -0.00001
  44      -0.03896     0.03113     0.02641     0.00002     0.00005     0.00022
  45       0.00000     0.00000     0.00000    -0.00000     0.00000    -0.00000
  46      -0.00000    -0.00000     0.00000     0.00000    -0.00000     0.00000
  47       0.00000     0.00000     0.00000     0.00000     0.00000     0.00000
  48       0.10372     0.02026     0.02761    -0.00012     0.00009     0.00046
  49       0.02276     0.03069    -0.10229    -0.00011     0.00008     0.00048
  50       0.02558    -0.10291    -0.02422     0.00008    -0.00008    -0.00044
  51      -0.00000    -0.00000     0.00000     0.00000    -0.00000     0.00000
  52      -0.02377     0.00699    -0.01228     0.00092    -0.00041    -0.00004
  53       0.01030     0.02398    -0.00649    -0.00014     0.00018     0.00104
  54      -0.00906     0.01041     0.02387    -0.00040     0.00034    -0.00006
  55       0.00000     0.00000    -0.00000    -0.00000    -0.00000    -0.00000

           13          14          15          16          17          18  
       ----------- ----------- ----------- ----------- ----------- -----------
   1       0.00000     0.27328     0.00000     0.00000     0.00000    -0.00047
   2      -0.00041     0.00000    -0.00497    -0.03199    -0.03685     0.00000
   3       0.00003    -0.00000     0.04475     0.01094    -0.01550     0.00000
   4      -0.00022    -0.00000    -0.01838     0.03544    -0.02791     0.00000
   5      -0.00000    -0.23559     0.00000     0.00000     0.00000     0.00018
   6      -0.00000     0.61689    -0.00000    -0.00000     0.00000    -0.00066
   7      -0.00063     0.00000    -0.03294    -0.09832     0.21995    -0.00000
   8      -0.00047    -0.00000    -0.02236     0.22189     0.09542    -0.00000
   9       0.00040    -0.00000    -0.23988    -0.00715    -0.03894     0.00000
  10       0.00005     0.00000     0.00127     0.00041    -0.00089    -0.00000
  11       0.00007    -0.00000    -0.00070    -0.00034     0.00037     0.00000
  12      -0.00107    -0.00000     0.00045    -0.00090     0.00065    -0.00000
  13       1.56581     0.00000    -0.00058     0.00014    -0.00121    -0.00000
  14       0.00000     3.44060    -0.00000     0.00000    -0.00000    -0.00145
  15      -0.00058    -0.00000     1.48268     0.00001    -0.00014     0.00000
  16       0.00014     0.00000     0.00001     1.48305     0.00015    -0.00000
  17      -0.00121    -0.00000    -0.00014     0.00015     1.48311    -0.00000
  18      -0.00000    -0.00145     0.00000    -0.00000    -0.00000     1.21066
  19      -0.00000     0.00035    -0.00000    -0.00000     0.00000    -0.00000
  20      -0.00000    -0.00090    -0.00000     0.00000     0.00000     0.00066
  21      -0.00004     0.00000     0.00098     0.00027    -0.00066     0.00000
  22       0.00000    -0.00136     0.00000    -0.00000     0.00000     0.00106
  23      -0.00000    -0.00052     0.00000    -0.00000     0.00000     0.00019
  24      -0.18820    -0.00000     0.00046    -0.00047     0.00067     0.00000
  25       0.61251     0.00000    -0.00014    -0.00043    -0.00046     0.00000
  26       0.03428     0.00000     0.00052     0.00021    -0.00032    -0.00000
  27      -0.00000    -0.00244    -0.00000    -0.00000    -0.00000     0.49703
  28      -0.00000     0.00042     0.00000    -0.00000    -0.00000    -0.42800
  29       0.00000    -0.00004    -0.00000    -0.00000     0.00000    -0.14947
  30       0.00091    -0.00000    -0.19560     0.31207    -0.35520     0.00000
  31       0.00022    -0.00000    -0.47265    -0.11647     0.15816    -0.00000
  32       0.00099     0.00000    -0.01589    -0.38770    -0.33349     0.00000
  33       0.00151    -0.00000    -0.04197     0.16764     0.35476    -0.00000
  34      -0.00098    -0.00000    -0.22632     0.28291    -0.15742     0.00000
  35       0.00047     0.00000     0.31953     0.22126    -0.06512     0.00000
  36      -0.00000     0.04477    -0.00000     0.00000    -0.00000    -0.00001
  37       0.00000    -0.00122    -0.00000     0.00000    -0.00000     0.00031
  38       0.00000    -0.00167     0.00000    -0.00000     0.00000    -0.00017
  39       0.00000     0.00192    -0.00000     0.00000     0.00000    -0.14247
  40       0.00000     0.00031     0.00000     0.00000    -0.00000     0.05507
  41      -0.00000     0.00052     0.00000    -0.00000    -0.00000    -0.10682
  42      -0.00007     0.00000    -0.00263    -0.01093    -0.01471     0.00000
  43       0.00009    -0.00000     0.01555     0.00458    -0.00621     0.00000
  44       0.00034    -0.00000     0.00749    -0.01403     0.00843    -0.00000
  45       0.00000    -0.00166     0.00000     0.00000     0.00000    -0.00030
  46      -0.00000     0.00022     0.00000    -0.00000     0.00000     0.00036
  47      -0.00000    -0.84755     0.00000    -0.00000     0.00000     0.00020
  48      -0.00076    -0.00000     0.03773     0.02076    -0.08346     0.00000
  49      -0.00079     0.00000    -0.08218    -0.01926    -0.04155     0.00000
  50       0.00048    -0.00000    -0.02622     0.09043     0.01095    -0.00000
  51      -0.00000    -0.01513     0.00000    -0.00000     0.00000     0.00067
  52       0.00050     0.00000    -0.02002    -0.02347     0.02261    -0.00000
  53      -0.00124    -0.00000    -0.00342    -0.02666    -0.02695     0.00000
  54       0.00118    -0.00000     0.03240    -0.01863     0.01055    -0.00000
  55       0.00000    -0.07750    -0.00000    -0.00000     0.00000     0.00036

           19          20          21          22          23          24  
       ----------- ----------- ----------- ----------- ----------- -----------
   1       0.00011    -0.00029    -0.00000    -0.00044    -0.00017    -0.00000
   2      -0.00000    -0.00000    -0.00006    -0.00000     0.00000     0.00075
   3      -0.00000    -0.00000    -0.00125    -0.00000     0.00000    -0.00018
   4      -0.00000    -0.00000    -0.00021    -0.00000    -0.00000     0.00033
   5      -0.00004     0.00011    -0.00000     0.00017     0.00006     0.00000
   6       0.00016    -0.00041    -0.00000    -0.00062    -0.00024     0.00000
   7       0.00000     0.00000    -0.00057     0.00000    -0.00000     0.00023
   8       0.00000     0.00000     0.00005    -0.00000    -0.00000     0.00008
   9      -0.00000    -0.00000    -0.00071    -0.00000     0.00000    -0.00029
  10      -0.00000    -0.00000     0.64102    -0.00000    -0.00000     0.00003
  11      -0.00000     0.00000    -0.00015    -0.00000    -0.00000    -0.03481
  12       0.00000    -0.00000     0.00001    -0.00000     0.00000     0.61124
  13      -0.00000    -0.00000    -0.00004     0.00000    -0.00000    -0.18820
  14       0.00035    -0.00090     0.00000    -0.00136    -0.00052    -0.00000
  15      -0.00000    -0.00000     0.00098     0.00000     0.00000     0.00046
  16      -0.00000     0.00000     0.00027    -0.00000    -0.00000    -0.00047
  17       0.00000     0.00000    -0.00066     0.00000     0.00000     0.00067
  18      -0.00000     0.00066     0.00000     0.00106     0.00019     0.00000
  19       1.20985    -0.00046    -0.00000    -0.00023    -0.00012    -0.00000
  20      -0.00046     1.20996     0.00000     0.00061     0.00004    -0.00000
  21      -0.00000     0.00000     1.03276    -0.00000    -0.00000    -0.00008
  22      -0.00023     0.00061    -0.00000     1.21033     0.00055     0.00000
  23      -0.00012     0.00004    -0.00000     0.00055     1.21004    -0.00000
  24      -0.00000    -0.00000    -0.00008     0.00000    -0.00000     1.03336
  25      -0.00000     0.00000    -0.00005    -0.00000     0.00000    -0.00047
  26      -0.00000    -0.00000     0.00092    -0.00000     0.00000    -0.00003
  27      -0.10554     0.44089     0.00000     0.00012    -0.00044     0.00000
  28       0.10531     0.50783    -0.00000    -0.00010    -0.00006    -0.00000
  29      -0.65630     0.01167    -0.00000    -0.00005     0.00011     0.00000
  30      -0.00000    -0.00000     0.00008    -0.00000    -0.00000    -0.00027
  31       0.00000     0.00000    -0.00010     0.00000    -0.00000     0.00008
  32      -0.00000    -0.00000     0.00021    -0.00000     0.00000    -0.00038
  33       0.00000     0.00000     0.00017     0.00000    -0.00000    -0.00099
  34      -0.00000     0.00000    -0.00000     0.00000     0.00000     0.00002
  35      -0.00000     0.00000    -0.00037    -0.00000    -0.00000    -0.00040
  36       0.00000    -0.00001     0.00000    -0.00001    -0.00000     0.00000
  37       0.00004     0.00019    -0.00000     0.56333    -0.36697     0.00000
  38      -0.00004    -0.00027    -0.00000     0.36709     0.56440    -0.00000
  39      -0.01344    -0.11930    -0.00000     0.00045    -0.00028     0.00000
  40       0.15686    -0.08339     0.00000     0.00001     0.00001    -0.00000
  41       0.09984     0.11690    -0.00000     0.00017     0.00008    -0.00000
  42      -0.00000    -0.00000    -0.00014    -0.00000     0.00000     0.00100
  43      -0.00000    -0.00000    -0.00013    -0.00000    -0.00000     0.00001
  44       0.00000    -0.00000     0.00005     0.00000    -0.00000    -0.00020
  45       0.00009    -0.00006    -0.00000     0.16393     0.08847    -0.00000
  46       0.00003     0.00029    -0.00000    -0.08943     0.16388    -0.00000
  47      -0.00005     0.00013     0.00000     0.00019     0.00007    -0.00000
  48      -0.00000    -0.00000    -0.00074    -0.00000    -0.00000     0.00065
  49      -0.00000    -0.00000     0.00044    -0.00000     0.00000     0.00085
  50      -0.00000     0.00000     0.00002    -0.00000     0.00000    -0.00049
  51      -0.00016     0.00042     0.00000     0.00063     0.00024     0.00000
  52       0.00000    -0.00000    -0.00130     0.00000     0.00000    -0.00025
  53      -0.00000    -0.00000    -0.00021    -0.00000     0.00000     0.00053
  54       0.00000    -0.00000     0.00072    -0.00000    -0.00000     0.00011
  55      -0.00009     0.00022     0.00000     0.00034     0.00013    -0.00000

           25          26          27          28          29          30  
       ----------- ----------- ----------- ----------- ----------- -----------
   1       0.00000     0.00000    -0.00041     0.00007    -0.00001     0.00000
   2      -0.00043    -0.00016     0.00000    -0.00000    -0.00000    -0.01101
   3       0.00038    -0.00066     0.00000    -0.00000    -0.00000    -0.00057
   4      -0.00110    -0.00000     0.00000    -0.00000     0.00000    -0.06273
   5       0.00000    -0.00000     0.00107    -0.00018     0.00002    -0.00000
   6      -0.00000     0.00000     0.00060    -0.00010     0.00001    -0.00000
   7      -0.00034    -0.00026    -0.00000     0.00000     0.00000    -0.22655
   8       0.00015    -0.00005    -0.00000     0.00000    -0.00000     0.08820
   9       0.00046    -0.00040     0.00000    -0.00000     0.00000     0.12954
  10      -0.00005     0.00015    -0.00000    -0.00000    -0.00000     0.00032
  11       0.02532    -0.63936    -0.00000    -0.00000     0.00000    -0.00006
  12       0.18821    -0.02612    -0.00000     0.00000    -0.00000    -0.00082
  13       0.61251     0.03428    -0.00000    -0.00000     0.00000     0.00091
  14       0.00000     0.00000    -0.00244     0.00042    -0.00004    -0.00000
  15      -0.00014     0.00052    -0.00000     0.00000    -0.00000    -0.19560
  16      -0.00043     0.00021    -0.00000    -0.00000    -0.00000     0.31207
  17      -0.00046    -0.00032    -0.00000    -0.00000     0.00000    -0.35520
  18       0.00000    -0.00000     0.49703    -0.42800    -0.14947     0.00000
  19      -0.00000    -0.00000    -0.10554     0.10531    -0.65630    -0.00000
  20       0.00000    -0.00000     0.44089     0.50783     0.01167    -0.00000
  21      -0.00005     0.00092     0.00000    -0.00000    -0.00000     0.00008
  22      -0.00000    -0.00000     0.00012    -0.00010    -0.00005    -0.00000
  23       0.00000     0.00000    -0.00044    -0.00006     0.00011    -0.00000
  24      -0.00047    -0.00003     0.00000    -0.00000     0.00000    -0.00027
  25       1.03291     0.00007     0.00000     0.00000    -0.00000     0.00112
  26       0.00007     1.03157     0.00000    -0.00000    -0.00000     0.00028
  27       0.00000     0.00000     0.90706    -0.00004     0.00009     0.00000
  28       0.00000    -0.00000    -0.00004     0.90636     0.00052    -0.00000
  29      -0.00000    -0.00000     0.00009     0.00052     0.90704    -0.00000
  30       0.00112     0.00028     0.00000    -0.00000    -0.00000     1.00731
  31       0.00019    -0.00004    -0.00000     0.00000    -0.00000    -0.00029
  32       0.00089    -0.00001     0.00000    -0.00000     0.00000    -0.00050
  33       0.00039     0.00028     0.00000    -0.00000    -0.00000     0.02599
  34      -0.00050     0.00017    -0.00000     0.00000    -0.00000    -0.07124
  35       0.00012    -0.00010     0.00000    -0.00000    -0.00000    -0.01079
  36       0.00000    -0.00000     0.00072    -0.00012     0.00001    -0.00000
  37      -0.00000    -0.00000     0.00053    -0.00008    -0.00009    -0.00000
  38      -0.00000    -0.00000     0.00003    -0.00014     0.00007     0.00000
  39      -0.00000     0.00000    -0.40036    -0.00298     0.09370     0.00000
  40      -0.00000     0.00000    -0.08501    -0.16104    -0.36582    -0.00000
  41       0.00000    -0.00000    -0.04006     0.37755    -0.15742     0.00000
  42      -0.00063    -0.00023    -0.00000     0.00000    -0.00000    -0.02445
  43      -0.00005    -0.00008    -0.00000     0.00000    -0.00000    -0.00613
  44       0.00009    -0.00003    -0.00000    -0.00000     0.00000     0.08931
  45      -0.00000    -0.00000     0.00127     0.00000    -0.00000     0.00000
  46       0.00000     0.00000     0.00061     0.00003    -0.00021     0.00000
  47      -0.00000    -0.00000     0.00056    -0.00010     0.00001     0.00000
  48      -0.00068    -0.00044     0.00000     0.00000    -0.00000     0.02014
  49      -0.00101     0.00017     0.00000     0.00000    -0.00000     0.01739
  50      -0.00022     0.00018     0.00000     0.00000    -0.00000     0.02212
  51      -0.00000    -0.00000     0.00191    -0.00033     0.00003     0.00000
  52      -0.00015    -0.00058    -0.00000    -0.00000     0.00000    -0.00532
  53      -0.00068    -0.00013    -0.00000     0.00000    -0.00000     0.00426
  54      -0.00109     0.00051    -0.00000    -0.00000     0.00000    -0.00679
  55       0.00000    -0.00000     0.00250    -0.00043     0.00005    -0.00000

           31          32          33          34          35          36  
       ----------- ----------- ----------- ----------- ----------- -----------
   1      -0.00000    -0.00000     0.00000     0.00000    -0.00000     0.07714
   2      -0.00059    -0.06195    -0.23120    -0.02581    -0.07911     0.00000
   3       0.06481    -0.00060    -0.07145    -0.05911     0.22859    -0.00000
   4      -0.00025     0.00954    -0.04142     0.23865     0.04862    -0.00000
   5       0.00000    -0.00000    -0.00000     0.00000    -0.00000    -0.25616
   6       0.00000    -0.00000    -0.00000     0.00000     0.00000     0.23904
   7       0.13706    -0.07749    -0.29023     0.25193     0.21340    -0.00000
   8      -0.00051    -0.26034    -0.32920    -0.24119    -0.16343    -0.00000
   9       0.23979     0.04371     0.02335    -0.26780     0.34784    -0.00000
  10      -0.00148     0.00022     0.00024    -0.00001    -0.00027     0.00000
  11       0.00081    -0.00010    -0.00028    -0.00015     0.00006     0.00000
  12      -0.00007    -0.00039    -0.00128    -0.00049    -0.00051     0.00000
  13       0.00022     0.00099     0.00151    -0.00098     0.00047    -0.00000
  14      -0.00000     0.00000    -0.00000    -0.00000     0.00000     0.04477
  15      -0.47265    -0.01589    -0.04197    -0.22632     0.31953    -0.00000
  16      -0.11647    -0.38770     0.16764     0.28291     0.22126     0.00000
  17       0.15816    -0.33349     0.35476    -0.15742    -0.06512    -0.00000
  18      -0.00000     0.00000    -0.00000     0.00000     0.00000    -0.00001
  19       0.00000    -0.00000     0.00000    -0.00000    -0.00000     0.00000
  20       0.00000    -0.00000     0.00000     0.00000     0.00000    -0.00001
  21      -0.00010     0.00021     0.00017    -0.00000    -0.00037     0.00000
  22       0.00000    -0.00000     0.00000     0.00000    -0.00000    -0.00001
  23      -0.00000     0.00000    -0.00000     0.00000    -0.00000    -0.00000
  24       0.00008    -0.00038    -0.00099     0.00002    -0.00040     0.00000
  25       0.00019     0.00089     0.00039    -0.00050     0.00012     0.00000
  26      -0.00004    -0.00001     0.00028     0.00017    -0.00010    -0.00000
  27      -0.00000     0.00000     0.00000    -0.00000     0.00000     0.00072
  28       0.00000    -0.00000    -0.00000     0.00000    -0.00000    -0.00012
  29      -0.00000     0.00000    -0.00000    -0.00000    -0.00000     0.00001
  30      -0.00029    -0.00050     0.02599    -0.07124    -0.01079    -0.00000
  31       1.00780    -0.00019    -0.02141    -0.01868     0.07106    -0.00000
  32      -0.00019     1.00653     0.06921     0.01944     0.02604     0.00000
  33      -0.02141     0.06921     1.22737     0.00137     0.00059     0.00000
  34      -0.01868     0.01944     0.00137     1.22811     0.00065     0.00000
  35       0.07106     0.02604     0.00059     0.00065     1.22723    -0.00000
  36      -0.00000     0.00000     0.00000     0.00000    -0.00000     0.23757
  37      -0.00000    -0.00000    -0.00000     0.00000    -0.00000     0.00036
  38       0.00000    -0.00000    -0.00000    -0.00000     0.00000     0.00049
  39      -0.00000     0.00000    -0.00000     0.00000     0.00000     0.00083
  40       0.00000    -0.00000     0.00000    -0.00000    -0.00000     0.00013
  41      -0.00000     0.00000     0.00000    -0.00000     0.00000     0.00022
  42      -0.00202    -0.08944    -0.48019    -0.00734    -0.15918    -0.00000
  43       0.09217    -0.00047    -0.15585    -0.09306     0.47626     0.00000
  44       0.00585    -0.02344     0.03353    -0.50125    -0.08684    -0.00000
  45       0.00000    -0.00000    -0.00000     0.00000    -0.00000    -0.00072
  46      -0.00000     0.00000    -0.00000    -0.00000     0.00000     0.00010
  47       0.00000    -0.00000    -0.00000    -0.00000     0.00000     1.41805
  48      -0.02375     0.01271    -0.10630     0.04001     0.08102    -0.00000
  49       0.02466     0.01539    -0.05743     0.07413    -0.10347     0.00000
  50       0.00258    -0.02806     0.07666     0.10907     0.04061    -0.00000
  51       0.00000    -0.00000    -0.00000    -0.00000     0.00000     0.53820
  52       0.00774    -0.00200     0.07158    -0.06966    -0.16284    -0.00000
  53       0.00010     0.01390    -0.19417    -0.02011    -0.06761     0.00000
  54      -0.00537    -0.00182     0.00066    -0.17617     0.07379    -0.00000
  55      -0.00000    -0.00000     0.00000     0.00000    -0.00000    -0.13348

           37          38          39          40          41          42  
       ----------- ----------- ----------- ----------- ----------- -----------
   1      -0.00020    -0.00028    -0.00005    -0.00001    -0.00001     0.00000
   2      -0.00000    -0.00000    -0.00000     0.00000    -0.00000     0.06313
   3      -0.00000     0.00000    -0.00000     0.00000    -0.00000    -0.00086
   4       0.00000    -0.00000    -0.00000    -0.00000    -0.00000     0.00511
   5       0.00053     0.00074    -0.00014    -0.00002    -0.00004     0.00000
   6       0.00030     0.00041     0.00075     0.00012     0.00020     0.00000
   7       0.00000    -0.00000     0.00000    -0.00000    -0.00000     0.02612
   8       0.00000    -0.00000     0.00000     0.00000     0.00000     0.04696
[...]
  27       0.00000    -0.00000    -1.69506    -0.00000     0.00000    -0.00008
  28       0.00000     0.00000     0.00156     0.00000     0.00000     0.00000
  29      -0.00000    -0.00000    -1.69422    -0.00000    -0.00000    -0.00008
  30      -0.00000    -0.00000     0.16424    -0.00000    -0.00000    -0.00001
  31       0.00000     0.00000     0.00009    -0.00000     0.00000     0.00000
  32       0.00000     0.00000     0.00015    -0.00000     0.00000     0.00000
  33      -0.00000    -0.00000     0.16394    -0.00000    -0.00000    -0.00001
  34      -0.00000    -0.00000    -0.00105    -0.00000    -0.00000    -0.00000
  35       0.00000    -0.00000     0.16337    -0.00000     0.00000    -0.00001
  36       0.39124     0.12849    -0.00002    -6.72501     2.35669     0.50582
  37      -0.40790    -0.91001     0.00015    -2.27329    -5.70597    -3.64147
  38       0.57979    -1.52685     0.00025     0.80059     3.59504    -6.10979
  39      -0.26645    -0.03232    -0.00002    -6.72848     2.35895     0.50668
  40      -1.80576    -0.54311    -0.00000    -0.01264     0.00557     0.00291
  41      -0.75160    -0.32609    -0.00002    -6.73617     2.35955     0.50826
  42       0.11237    -0.54412     0.00015    -2.27567    -5.70885    -3.64343
  43       2.16439     0.39032     0.00026     0.79479     3.58659    -6.12005
  44      -0.14475     2.34750     0.00015    -2.27651    -5.70785    -3.65892
  45      -0.86761     0.26986     0.00026     0.80007     3.60152    -6.11941
  46      -0.10806    -0.04543    -0.00001    -4.38012     1.53495     0.32900
  47       0.09055     0.32047     0.00010    -1.48181    -3.71598    -2.36844
  48      -0.19724     0.53769     0.00016     0.51946     2.34221    -3.97385
  49       0.18226     0.02546    -0.00001    -4.37860     1.53396     0.32861
  50       0.79713     0.23943     0.00000     0.00552    -0.00243    -0.00131
  51       0.39643     0.15497    -0.00001    -4.37525     1.53370     0.32790
  52      -0.13911     0.15916     0.00010    -1.48077    -3.71473    -2.36755
  53      -0.89675    -0.30751     0.00016     0.52199     2.34589    -3.96921
  54      -0.02561    -1.11563     0.00010    -1.48040    -3.71516    -2.36055
  55       0.44169    -0.25440     0.00016     0.51969     2.33937    -3.96950

           55  
       -----------
   1       6.35886
   2      15.10649
   3      -5.31367
   4      11.35530
   5       1.25806
   6       0.00000
   7      -0.00000
   8      -0.00001
   9      -0.00000
  10       0.00002
  11       0.00004
  12      -0.00000
  13       0.00001
  14       0.00001
  15       0.00000
  16      -0.00000
  17      -0.00000
  18      -4.73962
  19       0.00045
  20       0.00076
  21      -4.74121
  22      -0.00546
  23      -4.74416
  24      -6.08926
  25      -0.00035
  26      -0.00059
  27      -6.08801
  28       0.00426
  29      -6.08571
  30      -1.12247
  31       0.00013
  32       0.00021
  33      -1.12292
  34      -0.00153
  35      -1.12375
  36       0.00000
  37      -0.00001
  38      -0.00002
  39       0.00000
  40       0.00000
  41       0.00000
  42      -0.00001
  43      -0.00002
  44      -0.00001
  45      -0.00002
  46       0.00000
  47      -0.00001
  48      -0.00001
  49       0.00000
  50      -0.00000
  51       0.00000
  52      -0.00001
  53      -0.00001
  54      -0.00001
  55      -0.00001
  int_init: cando_txs set to always be  F
                                NWChem TDDFT Module
                                -------------------


            General Information
            -------------------
           No. of orbitals :     110
            Alpha orbitals :      55
             Beta orbitals :      55
        Alpha frozen cores :       0
         Beta frozen cores :       0
     Alpha frozen virtuals :       0
      Beta frozen virtuals :       0
         Spin multiplicity :       2
    Number of AO functions :      55
        Use of symmetry is : off
      Symmetry adaption is : off
         Schwarz screening :  0.10D-07

              XC Information
              --------------
              Hartree-Fock (Exact) Exchange   1.00          
              LC-wPBE(h)Exchange Functional   1.00          
     Perdew 1991 LDA Correlation Functional   1.00 local    
    PerdewBurkeErnz. Correlation Functional   1.00 non-local
           Alpha           :  0.00
           Beta            :  1.00
           Gamma           :  0.39

             TDDFT Information
             -----------------
          Calculation type : TDDFT             
         Wavefunction type : Unrestricted
          No. of electrons :       5
           Alpha electrons :       3
            Beta electrons :       2
              No. of roots :       5
          Max subspacesize :    5000
            Max iterations :     100
               Target root :       1
           Target symmetry : none
      Symmetry restriction : off
                 Algorithm : Optimal
        Davidson threshold :  0.10D-03

            Memory Information
            ------------------
          Available GA space size is       52428793950 doubles
          Available MA space size is        4194413092 doubles
          Length of a trial vector is          156     106
          Algorithm : Incore multiple tensor contraction
          Estimated peak GA usage is           5750820 doubles
          Estimated peak MA usage is             18000 doubles

    5 smallest eigenvalue differences (eV) 
--------------------------------------------------------
  No. Spin  Occ  Vir  Irrep   E(Occ)    E(Vir)   E(Diff)
--------------------------------------------------------
    1    1    3    4 a        -0.300    -0.006     7.992
    2    1    3    5 a        -0.300    -0.006     7.992
    3    1    3    6 a        -0.300     0.041     9.268
    4    1    3    7 a        -0.300     0.055     9.654
    5    1    3    8 a        -0.300     0.061     9.830
--------------------------------------------------------

  Entering Davidson iterations
  Unrestricted

  Iter   NTrls   NConv    DeltaV     DeltaE      Time   
  ----  ------  ------  ---------  ---------  --------- 
    1      5       0     0.98E-01   0.10+100        2.1
    2     15       0     0.36E-01   0.30E-01        3.8
    3     25       0     0.11E-01   0.24E-02        3.9
    4     34       0     0.92E-02   0.17E-03        3.6
    5     42       4     0.18E-02   0.60E-04        3.3
    6     44       4     0.38E-03   0.17E-05        1.3
    7     46       5     0.63E-04   0.62E-07        1.3
  ----  ------  ------  ---------  ---------  --------- 
  Convergence criterion met

  Ground state a         -24.624136956037 a.u.
  <S2> =   0.7549

  ----------------------------------------------------------------------------
  Root   1         a              0.000115028 a.u.                0.0031 eV 
  <S2> =   0.7553
  ----------------------------------------------------------------------------
     Transition Moments    X -0.00000   Y -0.00000   Z -0.00000
     Transition Moments   XX  1.51964  XY -5.67106  XZ -8.99470
     Transition Moments   YY  2.89690  YZ  1.11413  ZZ -4.41647
     Dipole Oscillator Strength                    0.0000000000
     Electric Quadrupole                           0.0000000000
     Magnetic Dipole                               0.0000000000
     Total Oscillator Strength                     0.0000000000

     Occ.    2 alpha a   ---  Virt.   11 alpha a   -0.06020 X
     Occ.    2 alpha a   ---  Virt.   11 alpha a   -0.06012 Y
     Occ.    2 alpha a   ---  Virt.   12 alpha a    0.15980 X
     Occ.    2 alpha a   ---  Virt.   12 alpha a    0.15959 Y
     Occ.    2 alpha a   ---  Virt.   20 alpha a    0.18430 X
     Occ.    2 alpha a   ---  Virt.   20 alpha a    0.18415 Y
     Occ.    3 alpha a   ---  Virt.    4 alpha a   -3.54947 X
     Occ.    3 alpha a   ---  Virt.    4 alpha a   -3.46933 Y
     Occ.    3 alpha a   ---  Virt.    5 alpha a    2.69137 X
     Occ.    3 alpha a   ---  Virt.    5 alpha a    2.63060 Y
     Occ.    3 alpha a   ---  Virt.    8 alpha a   -1.14357 X
     Occ.    3 alpha a   ---  Virt.    8 alpha a   -1.11846 Y
     Occ.    3 alpha a   ---  Virt.    9 alpha a    0.93368 X
     Occ.    3 alpha a   ---  Virt.    9 alpha a    0.91318 Y
     Occ.    3 alpha a   ---  Virt.   17 alpha a   -0.65701 X
     Occ.    3 alpha a   ---  Virt.   17 alpha a   -0.64345 Y
     Occ.    3 alpha a   ---  Virt.   18 alpha a   -0.10937 X
     Occ.    3 alpha a   ---  Virt.   18 alpha a   -0.10711 Y
     Occ.    3 alpha a   ---  Virt.   33 alpha a   -0.12715 X
     Occ.    3 alpha a   ---  Virt.   33 alpha a   -0.12480 Y
     Occ.    3 alpha a   ---  Virt.   34 alpha a    0.11926 X
     Occ.    3 alpha a   ---  Virt.   34 alpha a    0.11705 Y
     Occ.    2 beta  a   ---  Virt.   14 beta  a   -0.12347 X
     Occ.    2 beta  a   ---  Virt.   14 beta  a   -0.12340 Y
     Occ.    2 beta  a   ---  Virt.   21 beta  a    0.08117 X
     Occ.    2 beta  a   ---  Virt.   21 beta  a    0.08115 Y
     Occ.    2 beta  a   ---  Virt.   22 beta  a   -0.24497 X
     Occ.    2 beta  a   ---  Virt.   22 beta  a   -0.24490 Y
     Occ.    2 beta  a   ---  Virt.   42 beta  a   -0.10916 X
     Occ.    2 beta  a   ---  Virt.   42 beta  a   -0.10915 Y
  ----------------------------------------------------------------------------
  Root   2         a              0.000120470 a.u.                0.0033 eV 
  <S2> =   0.7553
  ----------------------------------------------------------------------------
     Transition Moments    X -0.00000   Y -0.00000   Z  0.00000
     Transition Moments   XX  0.51938  XY -1.22067  XZ -3.50194
     Transition Moments   YY -9.34187  YZ -5.20793  ZZ  8.82249
     Dipole Oscillator Strength                    0.0000000000
     Electric Quadrupole                           0.0000000000
     Magnetic Dipole                               0.0000000000
     Total Oscillator Strength                     0.0000000000

     Occ.    2 alpha a   ---  Virt.   11 alpha a    0.15616 X
     Occ.    2 alpha a   ---  Virt.   11 alpha a    0.15594 Y
     Occ.    2 alpha a   ---  Virt.   12 alpha a    0.05882 X
     Occ.    2 alpha a   ---  Virt.   12 alpha a    0.05874 Y
     Occ.    2 alpha a   ---  Virt.   19 alpha a    0.18010 X
     Occ.    2 alpha a   ---  Virt.   19 alpha a    0.17994 Y
     Occ.    3 alpha a   ---  Virt.    4 alpha a    2.63128 X
     Occ.    3 alpha a   ---  Virt.    4 alpha a    2.56909 Y
     Occ.    3 alpha a   ---  Virt.    5 alpha a    3.47024 X
     Occ.    3 alpha a   ---  Virt.    5 alpha a    3.38822 Y
     Occ.    3 alpha a   ---  Virt.    8 alpha a    0.91282 X
     Occ.    3 alpha a   ---  Virt.    8 alpha a    0.89184 Y
     Occ.    3 alpha a   ---  Virt.    9 alpha a    1.11803 X
     Occ.    3 alpha a   ---  Virt.    9 alpha a    1.09233 Y
     Occ.    3 alpha a   ---  Virt.   17 alpha a    0.10692 X
     Occ.    3 alpha a   ---  Virt.   17 alpha a    0.10461 Y
     Occ.    3 alpha a   ---  Virt.   18 alpha a   -0.64231 X
     Occ.    3 alpha a   ---  Virt.   18 alpha a   -0.62843 Y
     Occ.    3 alpha a   ---  Virt.   33 alpha a    0.11658 X
     Occ.    3 alpha a   ---  Virt.   33 alpha a    0.11432 Y
     Occ.    3 alpha a   ---  Virt.   34 alpha a    0.12430 X
     Occ.    3 alpha a   ---  Virt.   34 alpha a    0.12189 Y
     Occ.    2 beta  a   ---  Virt.   13 beta  a   -0.12065 X
     Occ.    2 beta  a   ---  Virt.   13 beta  a   -0.12058 Y
     Occ.    2 beta  a   ---  Virt.   21 beta  a   -0.23938 X
     Occ.    2 beta  a   ---  Virt.   21 beta  a   -0.23931 Y
     Occ.    2 beta  a   ---  Virt.   22 beta  a   -0.07932 X
     Occ.    2 beta  a   ---  Virt.   22 beta  a   -0.07929 Y
     Occ.    2 beta  a   ---  Virt.   41 beta  a   -0.10667 X
     Occ.    2 beta  a   ---  Virt.   41 beta  a   -0.10665 Y
  ----------------------------------------------------------------------------
  Root   3         a              0.186285957 a.u.                5.0691 eV 
  <S2> =   0.7611
  ----------------------------------------------------------------------------
     Transition Moments    X -0.06279   Y  0.45206   Z  0.75848
     Transition Moments   XX  0.00001  XY -0.00000  XZ -0.00000
     Transition Moments   YY  0.00001  YZ  0.00000  ZZ  0.00002
     Dipole Oscillator Strength                    0.0973149644
     Electric Quadrupole                           0.0000000000
     Magnetic Dipole                               0.0000000000
     Total Oscillator Strength                     0.0973149644

     Occ.    2 alpha a   ---  Virt.    7 alpha a   -0.05503 X
     Occ.    3 alpha a   ---  Virt.    6 alpha a   -0.92561 X
     Occ.    3 alpha a   ---  Virt.   10 alpha a    0.31289 X
     Occ.    3 alpha a   ---  Virt.   15 alpha a    0.12335 X
     Occ.    2 beta  a   ---  Virt.    5 beta  a   -0.10601 X
     Occ.    2 beta  a   ---  Virt.    9 beta  a   -0.09754 X
  ----------------------------------------------------------------------------
  Root   4         a              0.221371122 a.u.                6.0238 eV 
  <S2> =   0.7559
  ----------------------------------------------------------------------------
     Transition Moments    X -0.00000   Y  0.00000   Z -0.00000
     Transition Moments   XX  0.17045  XY -0.62402  XZ -1.01620
     Transition Moments   YY  0.15036  YZ  0.03053  ZZ -0.32088
     Dipole Oscillator Strength                    0.0000000000
     Electric Quadrupole                           0.0000000867
     Magnetic Dipole                               0.0000000000
     Total Oscillator Strength                     0.0000000867

     Occ.    3 alpha a   ---  Virt.    4 alpha a   -0.23192 X
     Occ.    3 alpha a   ---  Virt.    5 alpha a    0.24010 X
     Occ.    3 alpha a   ---  Virt.    8 alpha a    0.60467 X
     Occ.    3 alpha a   ---  Virt.    9 alpha a   -0.67278 X
     Occ.    3 alpha a   ---  Virt.   17 alpha a    0.24764 X
     Occ.    3 alpha a   ---  Virt.   18 alpha a    0.08176 X
  ----------------------------------------------------------------------------
  Root   5         a              0.221371136 a.u.                6.0238 eV 
  <S2> =   0.7559
  ----------------------------------------------------------------------------
     Transition Moments    X  0.00000   Y  0.00000   Z -0.00000
     Transition Moments   XX -0.03146  XY  0.03926  XZ  0.23277
     Transition Moments   YY  1.06505  YZ  0.58548  ZZ -1.03359
     Dipole Oscillator Strength                    0.0000000000
     Electric Quadrupole                           0.0000000867
     Magnetic Dipole                               0.0000000000
     Total Oscillator Strength                     0.0000000867

     Occ.    3 alpha a   ---  Virt.    4 alpha a   -0.24010 X
     Occ.    3 alpha a   ---  Virt.    5 alpha a   -0.23192 X
     Occ.    3 alpha a   ---  Virt.    8 alpha a    0.67278 X
     Occ.    3 alpha a   ---  Virt.    9 alpha a    0.60467 X
     Occ.    3 alpha a   ---  Virt.   17 alpha a    0.08177 X
     Occ.    3 alpha a   ---  Virt.   18 alpha a   -0.24764 X

              Target root =      1
          Target symmetry = none
      Ground state energy =    -24.624136956037
        Excitation energy =      0.000115027812
     Excited state energy =    -24.624021928225

  stored tddft:energy   -24.624021928224956     

 Task  times  cpu:       18.6s     wall:       21.6s


                                NWChem Input Module
                                -------------------


 Summary of allocated global arrays
-----------------------------------
  No active global arrays


MA_summarize_allocated_blocks: starting scan ...
heap block 'gridpts', handle 119, address 0x13f69ba8:
	type of elements:		double precision
	number of elements:		1048465655
	address of client space:	0x13f69c00
	index for client space:		13709015
	total number of bytes:		8387725336
MA_summarize_allocated_blocks: scan completed: 1 heap block, 0 stack blocks
MA usage statistics:

	allocation statistics:
					      heap	     stack
					      ----	     -----
	current number of blocks	         1	         0
	maximum number of blocks	        18	        54
	current total bytes		8387725336	         0
	maximum total bytes		8388518432	  22513208
	maximum total K-bytes		   8388519	     22514
	maximum total M-bytes		      8389	        23


                                     CITATION
                                     --------
                Please cite the following reference when publishing
                           results obtained with NWChem:

          E. Apra, E. J. Bylaska, W. A. de Jong, N. Govind, K. Kowalski,
       T. P. Straatsma, M. Valiev, H. J. J. van Dam, Y. Alexeev, J. Anchell,
       V. Anisimov, F. W. Aquino, R. Atta-Fynn, J. Autschbach, N. P. Bauman,
     J. C. Becca, D. E. Bernholdt, K. Bhaskaran-Nair, S. Bogatko, P. Borowski,
         J. Boschen, J. Brabec, A. Bruner, E. Cauet, Y. Chen, G. N. Chuev,
      C. J. Cramer, J. Daily, M. J. O. Deegan, T. H. Dunning Jr., M. Dupuis,
   K. G. Dyall, G. I. Fann, S. A. Fischer, A. Fonari, H. Fruchtl, L. Gagliardi,
      J. Garza, N. Gawande, S. Ghosh, K. Glaesemann, A. W. Gotz, J. Hammond,
       V. Helms, E. D. Hermes, K. Hirao, S. Hirata, M. Jacquelin, L. Jensen,
   B. G. Johnson, H. Jonsson, R. A. Kendall, M. Klemm, R. Kobayashi, V. Konkov,
      S. Krishnamoorthy, M. Krishnan, Z. Lin, R. D. Lins, R. J. Littlefield,
      A. J. Logsdail, K. Lopata, W. Ma, A. V. Marenich, J. Martin del Campo,
   D. Mejia-Rodriguez, J. E. Moore, J. M. Mullin, T. Nakajima, D. R. Nascimento,
    J. A. Nichols, P. J. Nichols, J. Nieplocha, A. Otero-de-la-Roza, B. Palmer,
    A. Panyala, T. Pirojsirikul, B. Peng, R. Peverati, J. Pittner, L. Pollack,
   R. M. Richard, P. Sadayappan, G. C. Schatz, W. A. Shelton, D. W. Silverstein,
   D. M. A. Smith, T. A. Soares, D. Song, M. Swart, H. L. Taylor, G. S. Thomas,
            V. Tipparaju, D. G. Truhlar, K. Tsemekhman, T. Van Voorhis,
      A. Vazquez-Mayagoitia, P. Verma, O. Villa, A. Vishnu, K. D. Vogiatzis,
        D. Wang, J. H. Weare, M. J. Williamson, T. L. Windus, K. Wolinski,
        A. T. Wong, Q. Wu, C. Yang, Q. Yu, M. Zacharias, Z. Zhang, Y. Zhao,
                                and R. J. Harrison
                        "NWChem: Past, present, and future
                         J. Chem. Phys. 152, 184102 (2020)
                               doi:10.1063/5.0004997

                                      AUTHORS
                                      -------
  E. Apra, E. J. Bylaska, N. Govind, K. Kowalski, M. Valiev, D. Mejia-Rodriguez,
       A. Kunitsa, N. P. Bauman, A. Panyala, W. A. de Jong, T. P. Straatsma,
   H. J. J. van Dam, D. Wang, T. L. Windus, J. Hammond, J. Autschbach, A. Woods,
    K. Bhaskaran-Nair, J. Brabec, K. Lopata, S. A. Fischer, S. Krishnamoorthy,
     M. Jacquelin, W. Ma, M. Klemm, O. Villa, Y. Chen, V. Anisimov, F. Aquino,
     S. Hirata, M. T. Hackler, E. Hermes, L. Jensen, J. E. Moore, J. C. Becca,
      V. Konjkov, T. Risthaus, M. Malagoli, A. Marenich, A. Otero-de-la-Roza,
        J. Mullin, P. Nichols, R. Peverati, J. Pittner, Y. Zhao, P.-D. Fan,
        A. Fonari, M. J. Williamson, R. J. Harrison, J. R. Rehr, M. Dupuis,
     D. Silverstein, D. M. A. Smith, J. Nieplocha, V. Tipparaju, M. Krishnan,
     B. E. Van Kuiken, A. Vazquez-Mayagoitia, M. Swart, Q. Wu, T. Van Voorhis,
     A. A. Auer, M. Nooijen, L. D. Crosby, E. Brown, G. Cisneros, G. I. Fann,
   H. Fruchtl, J. Garza, K. Hirao, R. A. Kendall, J. A. Nichols, K. Tsemekhman,
    K. Wolinski, J. Anchell, D. E. Bernholdt, P. Borowski, T. Clark, D. Clerc,
   H. Dachsel, M. J. O. Deegan, K. Dyall, D. Elwood, E. Glendening, M. Gutowski,
   A. C. Hess, J. Jaffe, B. G. Johnson, J. Ju, R. Kobayashi, R. Kutteh, Z. Lin,
   R. Littlefield, X. Long, B. Meng, T. Nakajima, S. Niu, L. Pollack, M. Rosing,
   K. Glaesemann, G. Sandrone, M. Stave, H. Taylor, G. Thomas, J. H. van Lenthe,
                               A. T. Wong, Z. Zhang.

 Total times  cpu:       18.6s     wall:       22.5s
