 argument  1 = /home/aditisingh4812/nw_chem/nwchem-run/nwchem-run/tddft/open/open_atom/geom-MOL/be.nw
                                         
                                         


             Northwest Computational Chemistry Package (NWChem) 7.2.3
             --------------------------------------------------------


                    Environmental Molecular Sciences Laboratory
                       Pacific Northwest National Laboratory
                                Richland, WA 99352

                              Copyright (c) 1994-2022
                       Pacific Northwest National Laboratory
                            Battelle Memorial Institute

             NWChem is an open-source computational chemistry package
                        distributed under the terms of the
                      Educational Community License (ECL) 2.0
             A copy of the license is included with this distribution
                              in the LICENSE.TXT file

                                  ACKNOWLEDGMENT
                                  --------------

            This software and its documentation were developed at the
            EMSL at Pacific Northwest National Laboratory, a multiprogram
            national laboratory, operated for the U.S. Department of Energy
            by Battelle under Contract Number DE-AC05-76RL01830. Support
            for this work was provided by the Department of Energy Office
            of Biological and Environmental Research, Office of Basic
            Energy Sciences, and the Office of Advanced Scientific Computing.


           Job information
           ---------------

    hostname        = p17
    program         = /home/aditisingh4812/nw_chem/nwchem-7.2.3-release.revision-d690e065-srconly.2024-08-27/nwchem-7.2.3/bin/LINUX64/nwchem
    date            = Thu May  8 11:47:15 2025

    compiled        = Mon_Apr_07_18:51:54_2025
    source          = /home/aditisingh4812/nw_chem/nwchem-7.2.3-release.revision-d690e065-srconly.2024-08-27/nwchem-7.2.3
    nwchem branch   = 7.2.3
    nwchem revision = d690e065
    ga revision     = 5.8.0
    use scalapack   = F
    input           = /home/aditisingh4812/nw_chem/nwchem-run/nwchem-run/tddft/open/open_atom/geom-MOL/be.nw
    prefix          = be.
    data base       = ./be.db
    status          = startup
    nproc           =        8
    time left       =     -1s



           Memory information
           ------------------

    heap     = 2621439998 doubles =  20000.0 Mbytes
    stack    = 2621439995 doubles =  20000.0 Mbytes
    global   = 6553600000 doubles =  50000.0 Mbytes (distinct from heap & stack)
    total    = ********** doubles =  90000.0 Mbytes
    verify   = yes
    hardfail = no 


           Directory information
           ---------------------

  0 permanent = .
  0 scratch   = .




                                NWChem Input Module
                                -------------------



 Scaling coordinates for geometry "geometry" by  1.889725989
 (inverse scale =  0.529177249)



                             Geometry "geometry" -> ""
                             -------------------------

 Output coordinates in angstroms (scale by  1.889725989 to convert to a.u.)

  No.       Tag          Charge          X              Y              Z
 ---- ---------------- ---------- -------------- -------------- --------------
    1 Be                   4.0000     0.00000000     0.00000000     0.00000000

      Atomic Mass 
      ----------- 

      Be                 9.012180


 Effective nuclear repulsion energy (a.u.)       0.0000000000

            Nuclear Dipole moment (a.u.) 
            ----------------------------
        X                 Y               Z
 ---------------- ---------------- ----------------
     0.0000000000     0.0000000000     0.0000000000


            XYZ format geometry
            -------------------
     1
 geometry
 Be                    0.00000000     0.00000000     0.00000000



 Summary of "ao basis" -> "" (cartesian)
 ------------------------------------------------------------------------------
       Tag                 Description            Shells   Functions and Types
 ---------------- ------------------------------  ------  ---------------------
 *                        aug-cc-pVTZ                 on all atoms 


  pbe96 is a nonlocal functional; adding pw91lda local functional. 

                                 NWChem DFT Module
                                 -----------------


                      Basis "ao basis" -> "ao basis" (cartesian)
                      -----
  Be (Beryllium)
  --------------
            Exponent  Coefficients 
       -------------- ---------------------------------------------------------
  1 S  6.86300000E+03  0.000236
  1 S  1.03000000E+03  0.001826
  1 S  2.34700000E+02  0.009452
  1 S  6.65600000E+01  0.037957
  1 S  2.16900000E+01  0.119965
  1 S  7.73400000E+00  0.282162
  1 S  2.91600000E+00  0.427404
  1 S  1.13000000E+00  0.266278
  1 S  1.10100000E-01 -0.007275

  2 S  6.86300000E+03 -0.000043
  2 S  1.03000000E+03 -0.000333
  2 S  2.34700000E+02 -0.001736
  2 S  6.65600000E+01 -0.007012
  2 S  2.16900000E+01 -0.023126
  2 S  7.73400000E+00 -0.058138
  2 S  2.91600000E+00 -0.114556
  2 S  1.13000000E+00 -0.135908
  2 S  1.10100000E-01  0.577441

  3 S  2.57700000E-01  1.000000

  4 S  4.40900000E-02  1.000000

  5 S  1.50300000E-02  1.000000

  6 P  7.43600000E+00  0.010736
  6 P  1.57700000E+00  0.062854
  6 P  4.35200000E-01  0.248180

  7 P  1.43800000E-01  1.000000

  8 P  4.99400000E-02  1.000000

  9 P  7.06000000E-03  1.000000

 10 D  3.48000000E-01  1.000000

 11 D  1.80300000E-01  1.000000

 12 D  6.54000000E-02  1.000000

 13 F  3.25000000E-01  1.000000

 14 F  1.53300000E-01  1.000000



 Summary of "ao basis" -> "ao basis" (cartesian)
 ------------------------------------------------------------------------------
       Tag                 Description            Shells   Functions and Types
 ---------------- ------------------------------  ------  ---------------------
 Be                       aug-cc-pVTZ               14       55   5s4p3d2f




 Summary of "ao basis" -> "ao basis" (cartesian)
 ------------------------------------------------------------------------------
       Tag                 Description            Shells   Functions and Types
 ---------------- ------------------------------  ------  ---------------------
 Be                       aug-cc-pVTZ               14       55   5s4p3d2f




                         Geometry "geometry" -> "geometry"
                         ---------------------------------

 Output coordinates in angstroms (scale by  1.889725989 to convert to a.u.)

  No.       Tag          Charge          X              Y              Z
 ---- ---------------- ---------- -------------- -------------- --------------
    1 Be                   4.0000     0.00000000     0.00000000     0.00000000

      Atomic Mass 
      ----------- 

      Be                 9.012180


 Effective nuclear repulsion energy (a.u.)       0.0000000000

            Nuclear Dipole moment (a.u.) 
            ----------------------------
        X                 Y               Z
 ---------------- ---------------- ----------------
     0.0000000000     0.0000000000     0.0000000000


                      Basis "ao basis" -> "ao basis" (cartesian)
                      -----
  Be (Beryllium)
  --------------
            Exponent  Coefficients 
       -------------- ---------------------------------------------------------
  1 S  6.86300000E+03  0.127866
  1 S  1.03000000E+03  0.238555
  1 S  2.34700000E+02  0.407256
  1 S  6.65600000E+01  0.635566
  1 S  2.16900000E+01  0.866380
  1 S  7.73400000E+00  0.940288
  1 S  2.91600000E+00  0.685312
  1 S  1.13000000E+00  0.209702
  1 S  1.10100000E-01 -0.000999

  2 S  6.86300000E+03 -0.041070
  2 S  1.03000000E+03 -0.076690
  2 S  2.34700000E+02 -0.131856
  2 S  6.65600000E+01 -0.206975
  2 S  2.16900000E+01 -0.294416
  2 S  7.73400000E+00 -0.341531
  2 S  2.91600000E+00 -0.323798
  2 S  1.13000000E+00 -0.188678
  2 S  1.10100000E-01  0.139802

  3 S  2.57700000E-01  0.257778

  4 S  4.40900000E-02  0.068575

  5 S  1.50300000E-02  0.030594

  6 P  7.43600000E+00  0.639716
  6 P  1.57700000E+00  0.539005
  6 P  4.35200000E-01  0.425695

  7 P  1.43800000E-01  0.126223

  8 P  4.99400000E-02  0.033651

  9 P  7.06000000E-03  0.002917

 10 D  3.48000000E-01  0.259521

 11 D  1.80300000E-01  0.082111

 12 D  6.54000000E-02  0.013921

 13 F  3.25000000E-01  0.117406

 14 F  1.53300000E-01  0.021648



    Basis function labels
    ---------------------
       No.  Atm El Type
       ---  --- -- ----
        1    1 Be s          
        2    1 Be s          
        3    1 Be s          
        4    1 Be s          
        5    1 Be s          
        6    1 Be px         
        7    1 Be py         
        8    1 Be pz         
        9    1 Be px         
       10    1 Be py         
       11    1 Be pz         
       12    1 Be px         
       13    1 Be py         
       14    1 Be pz         
       15    1 Be px         
       16    1 Be py         
       17    1 Be pz         
       18    1 Be dxx        
       19    1 Be dxy        
       20    1 Be dxz        
       21    1 Be dyy        
       22    1 Be dyz        
       23    1 Be dzz        
       24    1 Be dxx        
       25    1 Be dxy        
       26    1 Be dxz        
       27    1 Be dyy        
       28    1 Be dyz        
       29    1 Be dzz        
       30    1 Be dxx        
       31    1 Be dxy        
       32    1 Be dxz        
       33    1 Be dyy        
       34    1 Be dyz        
       35    1 Be dzz        
       36    1 Be fxxx       
       37    1 Be fxxy       
       38    1 Be fxxz       
       39    1 Be fxyy       
       40    1 Be fxyz       
       41    1 Be fxzz       
       42    1 Be fyyy       
       43    1 Be fyyz       
       44    1 Be fyzz       
       45    1 Be fzzz       
       46    1 Be fxxx       
       47    1 Be fxxy       
       48    1 Be fxxz       
       49    1 Be fxyy       
       50    1 Be fxyz       
       51    1 Be fxzz       
       52    1 Be fyyy       
       53    1 Be fyyz       
       54    1 Be fyzz       
       55    1 Be fzzz       
  int_init: cando_txs set to always be  F

 Schwarz integral screening summary 
 ---------------------------------- 

        No. of atom pairs =       1
       No. of shell pairs =     105

 Atomic screening 

   value      no.     value      no.     value      no.     value      no.   
  -------- ------    -------- ------    -------- ------    -------- ------   
  0.00D+00      0    1.00D-13      0    1.00D-12      0    1.00D-11      0
  1.00D-10      0    1.00D-09      0    1.00D-08      0    1.00D-07      0
  1.00D-06      0    1.00D-05      0    1.00D-04      0    1.00D-03      0
  1.00D-02      0    1.00D-01      0    1.00D+00      1    1.00D+01      0


 Shell screening 

   value      no.     value      no.     value      no.     value      no.   
  -------- ------    -------- ------    -------- ------    -------- ------   
  0.00D+00      0    1.00D-13      0    1.00D-12      0    1.00D-11      0
  1.00D-10      0    1.00D-09      0    1.00D-08      0    1.00D-07      0
  1.00D-06      0    1.00D-05      0    1.00D-04      0    1.00D-03      1
  1.00D-02      6    1.00D-01     42    1.00D+00     56    1.00D+01      0


  Caching 1-el integrals 
  atom                     1  - neighbor  & S                     1   10.000000000000000       exp AB    7.0600000000000055E-003   7.0600000000000055E-003
 zmins =     0.007060000    0.007060000 lprod =   2 range =        38.66 acc   0.10D-06
 sh     0.000000000
  Center:                     1  Radial Pts. & Wghts. 
    1        0.000034137           1.1934768E-13
    2        0.000273102           3.0554201E-11
    3        0.000921744           7.8315389E-10
    4        0.002184987           7.8243237E-09
    5        0.004267917           4.6652507E-08
    6        0.007375898           2.0069932E-07
    7        0.011714733           6.8933231E-07
    8        0.017490848           2.0080513E-06
    9        0.024911524           5.1584881E-06
   10        0.034185152           1.2001665E-05
   11        0.045521539           2.5774406E-05
   12        0.059132241           5.1816060E-05
   13        0.075230944           9.8561016E-05
   14        0.094033879           1.7886220E-04
   15        0.115760289           3.1172224E-04
   16        0.140632938           5.2452262E-04
   17        0.168878672           8.5585779E-04
   18        0.200729032           1.3591008E-03
   19        0.236420931           2.1068518E-03
   20        0.276197385           3.1964500E-03
   21        0.320308330           4.7567660E-03
   22        0.369011500           6.9565362E-03
   23        0.422573402           1.0014557E-02
   24        0.481270384           1.4212121E-02
   25        0.545389815           1.9908169E-02
   26        0.615231377           2.7557730E-02
   27        0.691108507           3.7734348E-02
   28        0.773349984           5.1157386E-02
   29        0.862301700           6.8725260E-02
   30        0.958328632           9.1555962E-02
   31        1.061817045           1.2103653E-01
   32        1.173176968           1.5888357E-01
   33        1.292844970           2.0721747E-01
   34        1.421287308           2.6865361E-01
   35        1.559003481           3.4641483E-01
   36        1.706530281           4.4447062E-01
   37        1.864446414           5.6770989E-01
   38        2.033377801           7.2215633E-01
   39        2.214003680           9.1523816E-01
   40        2.407063662           1.1561274E+00
   41        2.613365940           1.4561689E+00
   42        2.833796860           1.8294259E+00
   43        3.069332180           2.2933779E+00
   44        3.321050344           2.8698192E+00
   45        3.590148259           3.5860237E+00
   46        3.877960155           4.4762672E+00
   47        4.185980279           5.5838316E+00
   48        4.515890405           6.9636699E+00
   49        4.869593460           8.6859811E+00
   50        5.249254952           1.0841060E+01
   51        5.657354504           1.3545950E+01
   52        6.096750604           1.6953689E+01
   53        6.570762863           2.1266342E+01
   54        7.083277793           2.6753642E+01
   55        7.638886676           3.3780144E+01
   56        8.243067979           4.2845524E+01
   57        8.902432771           5.4645690E+01
   58        9.625061246           7.0167767E+01
   59       10.420974197           9.0841877E+01
   60       11.302810110           1.1879159E+02
   61       12.286825871           1.5726291E+02
   62       13.394426507           2.1139202E+02
   63       14.654599696           2.8965358E+02
   64       16.107984458           4.0677370E+02
   65       17.814097489           5.9007709E+02
   66       19.865207688           8.9481922E+02
   67       22.415890261           1.4467282E+03
   68       25.755918724           2.5859419E+03
   69       30.535843320           5.5343618E+03
   70       38.831515352           1.8162866E+04
     irreducible set of Lebedev Angular points ;
  0.009523809523810  1.000000000000000  0.000000000000000  0.000000000000000
  0.032142857142857  0.577350269189626  0.577350269189626  0.577350269189626
  0.028571428571429  0.459700843380983  0.000000000000000  0.888073833977115
   total no. of   reducible points:  38; test:  1.00000000
  0.012698412698413  1.000000000000000  0.000000000000000  0.000000000000000
  0.022574955908289  0.707106781186547  0.707106781186547  0.000000000000000
  0.021093750000000  0.577350269189626  0.577350269189626  0.577350269189626
  0.020173335537919  0.301511344577764  0.301511344577764  0.904534033733291
   total no. of   reducible points:  50; test:  1.00000000
  0.000513067179734  1.000000000000000  0.000000000000000  0.000000000000000
  0.016604069565742  0.707106781186547  0.707106781186547  0.000000000000000
 -0.029586038961039  0.577350269189626  0.577350269189626  0.577350269189626
  0.026576207082159  0.480384461415261  0.480384461415261  0.733799385705343
  0.016522170993716  0.320772648980776  0.000000000000000  0.947156221362588
   total no. of   reducible points:  74; test:  1.00000000
  0.011544011544012  1.000000000000000  0.000000000000000  0.000000000000000
  0.011943909085856  0.577350269189626  0.577350269189626  0.577350269189626
  0.011110555710603  0.369602846454150  0.369602846454150  0.852518311701268
  0.011876501294537  0.694354006602666  0.694354006602666  0.189063552885395
  0.011812303746904  0.374243039090341  0.000000000000000  0.927330657151172
   total no. of   reducible points:  86; test:  1.00000000
  0.003828270494937  1.000000000000000  0.000000000000000  0.000000000000000
  0.009793737512488  0.577350269189626  0.577350269189626  0.577350269189626
  0.008211737283191  0.185115635344736  0.185115635344736  0.965124035086594
  0.009942814891178  0.690421048382292  0.690421048382292  0.215957291845848
  0.009595471336071  0.395689473055942  0.395689473055942  0.828769981252592
  0.009694996361663  0.478369028812150  0.000000000000000  0.878158910604066
   total no. of   reducible points: 110; test:  1.00000000
  0.000599631368862  1.000000000000000  0.000000000000000  0.000000000000000
  0.007372999718621  0.707106781186547  0.707106781186547  0.000000000000000
  0.007210515360144  0.577350269189626  0.577350269189626  0.577350269189626
  0.007116355493118  0.676441040011426  0.676441040011426  0.291298882209527
  0.006753829486314  0.417496122796545  0.417496122796545  0.807089818359583
  0.007574394159054  0.157467667203908  0.157467667203908  0.974888643677173
  0.006991087353303  0.140355381171318  0.449332832326956  0.882270011260323
   total no. of   reducible points: 146; test:  1.00000000
  0.005544842902037  1.000000000000000  0.000000000000000  0.000000000000000
  0.006071332770671  0.707106781186547  0.707106781186547  0.000000000000000
  0.006383674773515  0.577350269189626  0.577350269189626  0.577350269189626
  0.005183387587748  0.255125262111413  0.255125262111413  0.932642590312691
  0.006317929009814  0.674360146036277  0.674360146036277  0.300793595137701
  0.006201670006589  0.431891069671941  0.431891069671941  0.791795559393492
  0.005477143385137  0.261393136033599  0.000000000000000  0.965232421976448
  0.005968383987681  0.499045316179604  0.144663074432512  0.854415804684659
   total no. of   reducible points: 170; test:  1.00000000
  0.001782340447245  1.000000000000000  0.000000000000000  0.000000000000000
  0.005716905949977  0.707106781186547  0.707106781186547  0.000000000000000
  0.005573383178849  0.577350269189626  0.577350269189626  0.577350269189626
  0.005608704082588  0.671297344269523  0.671297344269523  0.314196994182586
  0.005158237711805  0.289246562757544  0.289246562757544  0.912509096867474
  0.005518771467274  0.444693317871744  0.444693317871744  0.777493219314767
  0.004106777028169  0.129933544765007  0.129933544765007  0.982972302707253
  0.005051846064615  0.345770219761128  0.000000000000000  0.938319218137592
  0.005530248916233  0.159041710538353  0.836036015482459  0.525118572443642
   total no. of   reducible points: 194; test:  1.00000000
 -0.055226399197273  1.000000000000000  0.000000000000000  0.000000000000000
  0.004450274607445  0.577350269189626  0.577350269189626  0.577350269189626
  0.004496841067921  0.449204468739761  0.449204468739761  0.772289253148364
  0.005049153450479  0.252041949021020  0.252041949021020  0.934317778845812
  0.003976408018052  0.698190665844724  0.698190665844724  0.158302205463478
  0.004401400650381  0.658740524346096  0.658740524346096  0.363485684956727
  0.017245443505444  0.040385440500977  0.040385440500977  0.998367683967727
  0.004231083095357  0.582384230971558  0.000000000000000  0.812913653173365
  0.005198069864064  0.354587739051869  0.000000000000000  0.935022745880593
  0.004695720972569  0.227218180899819  0.486466153588665  0.843636521068894
   total no. of   reducible points: 230; test:  1.00000000
 -0.001313769127327  1.000000000000000  0.000000000000000  0.000000000000000
 -0.002522728704859  0.707106781186547  0.707106781186547  0.000000000000000
  0.004186853881701  0.577350269189626  0.577350269189626  0.577350269189626
  0.005315167977811  0.703937339158548  0.703937339158548  0.094575076403713
  0.004047142377086  0.101252624857241  0.101252624857241  0.989694807462905
  0.004112482394407  0.464744872642054  0.464744872642054  0.753673939250816
  0.003595584899759  0.327742065497163  0.327742065497163  0.886098344997499
  0.004256131351428  0.662033866369997  0.662033866369997  0.351315128564633
  0.004229582700647  0.850650808352040  0.000000000000000  0.525731112119134
  0.004080914225781  0.323348454269290  0.115311201100970  0.939227929749916
  0.004071467593831  0.231479015871260  0.524493924092236  0.819343388819120
   total no. of   reducible points: 266; test:  1.00000000
  0.000854591172513  1.000000000000000  0.000000000000000  0.000000000000000
  0.003599119285026  0.577350269189626  0.577350269189626  0.577350269189626
  0.003449788424306  0.351564034557011  0.351564034557011  0.867643624544083
  0.003604822601420  0.656632941021961  0.656632941021961  0.371034178384821
  0.003576729661743  0.472905413258100  0.472905413258100  0.743452042987556
  0.002352101413689  0.096183085226148  0.096183085226148  0.990705621379408
  0.003108953122414  0.221964523629418  0.221964523629418  0.949454317226443
  0.003650045807677  0.701176641608955  0.701176641608955  0.129238672710514
  0.002982344963172  0.264415288706066  0.000000000000000  0.964408914879206
  0.003600820932216  0.571895589187896  0.000000000000000  0.820326419827759
  0.003571540554273  0.251003475177047  0.800072749407395  0.544867737258077
  0.003392312205006  0.123354853258333  0.412772408316853  0.902442529533000
   total no. of   reducible points: 302; test:  1.00000000
  0.003006796749454  1.000000000000000  0.000000000000000  0.000000000000000
  0.003050627745651  0.577350269189626  0.577350269189626  0.577350269189626
  0.001621104600289  0.706896546391232  0.706896546391232  0.024383301669356
  0.003005701484902  0.479468262571203  0.479468262571203  0.734996850587746
  0.002990992529654  0.192753315487802  0.192753315487802  0.962129055136014
  0.002982170644108  0.693035796132712  0.693035796132712  0.198501311223365
  0.002721564237311  0.360830211552009  0.360830211552009  0.860001812127547
  0.003033513795811  0.649848616149617  0.649848616149617  0.394199888605839
  0.003007949555219  0.193294501323034  0.000000000000000  0.981140782843257
  0.002881964603055  0.380049491989930  0.000000000000000  0.924966152698679
  0.002958357626536  0.289955882549957  0.793453785658232  0.535123047718276
  0.003036020026407  0.096841214551040  0.828080150668686  0.552182074349399
  0.002832187403926  0.183343464704166  0.907465826530513  0.378009189874487
   total no. of   reducible points: 350; test:  1.00000000
  0.000526589796822  1.000000000000000  0.000000000000000  0.000000000000000
  0.002548219972003  0.707106781186547  0.707106781186547  0.000000000000000
  0.002512317418927  0.577350269189626  0.577350269189626  0.577350269189626
  0.002530403801186  0.690934630750911  0.690934630750911  0.212646824707552
  0.002014279020919  0.177483605460916  0.177483605460916  0.967987158791473
  0.002501725168403  0.491434263778475  0.491434263778475  0.719016501040843
  0.002513267174598  0.645666470742426  0.645666470742426  0.407712664897770
  0.002302694782227  0.286128901030764  0.286128901030764  0.914472801120872
  0.001462495621595  0.075680843671780  0.075680843671780  0.994255912631278
  0.002445373437313  0.392725976336800  0.392725976336800  0.831584400419232
  0.002417442375639  0.881813287779429  0.000000000000000  0.471598691151316
  0.001910951282180  0.977642811118265  0.000000000000000  0.210272522857307
  0.002416930044325  0.205482369640304  0.868946032287241  0.450233038258263
  0.002512236854563  0.590515704892527  0.799927854385729  0.106801826075805
  0.002496644054553  0.555015236107681  0.771746262691590  0.310428403516654
  0.002236607760438  0.937180985855372  0.334436314534346  0.099217696364292
   total no. of   reducible points: 434; test:  1.00000000
  0.000309512129531  1.000000000000000  0.000000000000000  0.000000000000000
  0.001852379698597  0.577350269189626  0.577350269189626  0.577350269189626
  0.001871790639278  0.704095493822747  0.704095493822747  0.092190407076898
  0.001858812585438  0.680774406645524  0.680774406645524  0.270356088359165
  0.001852028828296  0.637254693925875  0.637254693925875  0.433373868777154
  0.001846715956151  0.504441970780036  0.504441970780036  0.700768575373573
  0.001818471778163  0.421576178401097  0.421576178401097  0.802836877335274
  0.001749564657281  0.331792073647212  0.331792073647212  0.883078727934133
  0.001617210647254  0.238473670142189  0.238473670142189  0.941414158220403
  0.001384737234852  0.145903644915776  0.145903644915776  0.978480583762694
  0.000976433116505  0.060950341155072  0.060950341155072  0.996278129754016
  0.001857161196774  0.611684344200988  0.000000000000000  0.791101929626902
  0.001705153996396  0.396475534819986  0.000000000000000  0.918045287711454
  0.001300321685886  0.172478200990772  0.000000000000000  0.985013335028002
  0.001842866472905  0.561026380862206  0.351828092773352  0.749310611904116
  0.001802658934377  0.474239284255198  0.263471665593795  0.840047488359050
  0.001849830560444  0.598412649788538  0.181664084036021  0.780320742479920
  0.001713904507107  0.379103540769556  0.172079522565688  0.909213475092374
  0.001555213603397  0.277867319058624  0.082130215819325  0.957102074310073
  0.001802239128009  0.503356427107512  0.089992058420749  0.859379855890721
   total no. of   reducible points: 590; test:  1.00000000
  qrot: 

              1        2        3      
    1    1.0000   0.0000   0.0000
    2    0.0000   1.0000   0.0000
    3    0.0000   0.0000   1.0000
  me                     0   done genpts
  me                     1   done genpts
  me                     2   done genpts
  me                     3   done genpts
  me                     4   done genpts
  me                     5   done genpts
  me                     6   done genpts
  me                     7   done genpts
  me                     0   done uprt
  me                     1   done uprt
  me                     2   done uprt
  me                     3   done uprt
  me                     4   done uprt
  me                     5   done uprt
  me                     6   done uprt
  me                     7   done uprt
  me                     0  done mem
  me                     1  done mem
  me                     2  done mem
  me                     3  done mem
  me                     4  done mem
  me                     5  done mem
  me                     6  done mem
  me                     7  done mem
  dftinpanae: itol2e                     8  iaoacc                    14  tol_rho    1.0000000000000000E-010

            General Information
            -------------------
          SCF calculation type: DFT
          Wavefunction type:  closed shell.
          No. of atoms     :     1
          No. of electrons :     4
           Alpha electrons :     2
            Beta electrons :     2
          Charge           :     0
          Spin multiplicity:     1
          Use of symmetry is: off; symmetry adaption is: off
          Maximum number of iterations:  50
          AO basis - number of functions:    55
                     number of shells:    14
          Convergence on energy requested:  1.00D-06
          Convergence on density requested:  1.00D-05
          Convergence on gradient requested:  5.00D-04

              XC Information
              --------------
                     Hartree-Fock (Exact) Exchange  1.000          
                     LC-wPBE(h)Exchange Functional  1.000          
            Perdew 1991 LDA Correlation Functional  1.000 local    
           PerdewBurkeErnz. Correlation Functional  1.000 non-local

           Range-Separation Parameters        
           ---------------------------
           Alpha           :  0.00
           Beta            :  1.00
           Gamma           :  0.35
           Short-Range HF  :     F

             Grid Information
             ----------------
          Grid used for XC integration:  fine      
          Radial quadrature: Mura-Knowles        
          Angular quadrature: Lebedev. 
          Tag              B.-S. Rad. Rad. Pts. Rad. Cut. Ang. Pts.
          ---              ---------- --------- --------- ---------
          Be                  1.05       70          21.0       590
          Grid pruning is: on 
          Number of quadrature shells:    70
          Spatial weights used:  Erf1

          Convergence Information
          -----------------------
          Convergence aids based upon iterative change in 
          total energy or number of iterations. 
          Levelshifting, if invoked, occurs when the 
          HOMO/LUMO gap drops below (HL_TOL):  1.00D-02
          DIIS, if invoked, will attempt to extrapolate 
          using up to (NFOCK): 10 stored Fock matrices.

                    Damping( 0%)  Levelshifting(0.5)       DIIS
                  --------------- ------------------- ---------------
          dE  on:    start            ASAP                start   
          dE off:    2 iters         50 iters            50 iters 


      Screening Tolerance Information
      -------------------------------
          Density screening/tol_rho:  1.00D-10
          AO Gaussian exp screening on grid/accAOfunc:  14
          CD Gaussian exp screening on grid/accCDfunc:  20
          XC Gaussian exp screening on grid/accXCfunc:  20
          Schwarz screening/accCoul:  1.00D-08



                         Geometry "geometry" -> "geometry"
                         ---------------------------------

 Output coordinates in angstroms (scale by  1.889725989 to convert to a.u.)

  No.       Tag          Charge          X              Y              Z
 ---- ---------------- ---------- -------------- -------------- --------------
    1 Be                   4.0000     0.00000000     0.00000000     0.00000000

      Atomic Mass 
      ----------- 

      Be                 9.012180


 Effective nuclear repulsion energy (a.u.)       0.0000000000

            Nuclear Dipole moment (a.u.) 
            ----------------------------
        X                 Y               Z
 ---------------- ---------------- ----------------
     0.0000000000     0.0000000000     0.0000000000

  
  CAM type calculations without CDFIT are
  only available with the direct option.
  Forcing Direct SCF
  


     <<<<<<    Before call to DFT_SCF.    >>>>>>
     <<<<<< date:  May  8  time: 11:47:15 >>>>>>


 Setting tolerance for linear dependence to 1.00D-05





 Setting tolerance for linear dependence to 1.00D-05

 Setting tolerance for linear dependence to 1.00D-05

 Setting tolerance for linear dependence to 1.00D-05
 Setting tolerance for linear dependence to 1.00D-05
 Setting tolerance for linear dependence to 1.00D-05
 Setting tolerance for linear dependence to 1.00D-05
 Setting tolerance for linear dependence to 1.00D-05
  lindep tolerance =    1.0000000000000001E-005
  lindep tolerance =    1.0000000000000001E-005
  lindep tolerance =    1.0000000000000001E-005
  lindep tolerance =    1.0000000000000001E-005
  lindep tolerance =    1.0000000000000001E-005
  lindep tolerance =    1.0000000000000001E-005
  lindep tolerance =    1.0000000000000001E-005
  lindep tolerance =    1.0000000000000001E-005


     <<<<<<    Before 3c-2e initialize.   >>>>>>
     <<<<<< date:  May  8  time: 11:47:15 >>>>>>


 Setting fock-build task_bf   :      -1
                    maxquartet:   10000
                    maxeri    :  129600
                    maxscr    :       0
                    intacc    : 0.0D+00
                    denscreen : T
                    dentol    : 1.0D-06


      Superposition of Atomic Density Guess
      -------------------------------------

 Sum of atomic energies:         -14.57287534

      Non-variational initial energy
      ------------------------------

 Total energy =     -14.572875
 1-e energy   =     -19.061832
 2-e energy   =       4.488957
 HOMO         =      -0.309277
 LUMO         =       0.014529


 Setting fock-build task_bf   :      -1
                    maxquartet:   10000
                    maxeri    :  129600
                    maxscr    :       0
                    intacc    : 0.0D+00
                    denscreen : T
                    dentol    : 1.0D-06


 Wrote molecular orbitals to ./be.movecs

  WARNING: movecs_in_org=atomic not equal to movecs_in=./be.movecs
   Time after variat. SCF:      0.2

 Setting fock-build task_bf   :      -1
                    maxquartet:   10000
                    maxeri    :  129600
                    maxscr    :       0
                    intacc    : 0.0D+00
                    denscreen : T
                    dentol    : 1.0D-06

   Time prior to 1st pass:      0.2


     <<<<<<      Before SCF iter loop.    >>>>>>
     <<<<<< date:  May  8  time: 11:47:15 >>>>>>

           DAMPING=T LEVELSHIFTING=F DIISING=T
          itol2e= 8 iAOacc=12 iXCacc=20


     <<<<<<            calling 1-e int    >>>>>>
     <<<<<< date:  May  8  time: 11:47:15 >>>>>>

    Kinetic Matrix Time:          0.0s

           Kinetic energy =     14.573468871955

    Potential Matrix Time:          0.0s


     <<<<<<    Before call to GETVXC.     >>>>>>
     <<<<<< date:  May  8  time: 11:47:15 >>>>>>



     <<<<<<    Before call to fock_2e.    >>>>>>
     <<<<<< date:  May  8  time: 11:47:15 >>>>>>



     <<<<<<     After call to fock_2e.    >>>>>>
     <<<<<< date:  May  8  time: 11:47:15 >>>>>>

    Fock_2e Build Time:          0.0s
  *** grid_quadv0:                    calc_type:                    1
  *** grid_quadv0:                    grid_written: F
  *** grid_quadv0:                    grad: T
  *** grid_quadv0:                    kske: F
  *** grid_quadv0:                    kslap: F
  *** grid_quadv0:                    do_scf: T
  *** grid_quadv0:                    fde_option:                    0
  *** grid_quadv0:                    n_per_rec:                 3070
  *** grid_quadv0:                    calc_type:                    1
  *** grid_quadv0:                    grid_written: F
  *** grid_quadv0:                    grad: T
  *** grid_quadv0:                    kske: F
  *** grid_quadv0:                    kslap: F
  *** grid_quadv0:                    do_scf: T
  *** grid_quadv0:                    fde_option:                    0
  *** grid_quadv0:                    n_per_rec:                 3070
  *** grid_quadv0:                    calc_type:                    1
  *** grid_quadv0:                    grid_written: F
  *** grid_quadv0:                    grad: T
  *** grid_quadv0:                    kske: F
  *** grid_quadv0:                    kslap: F
  *** grid_quadv0:                    do_scf: T
  *** grid_quadv0:                    fde_option:                    0
  *** grid_quadv0:                    n_per_rec:                 3070
  *** grid_quadv0:                    calc_type:                    1
  *** grid_quadv0:                    grid_written: F
  *** grid_quadv0:                    grad: T
  *** grid_quadv0:                    kske: F
  *** grid_quadv0:                    kslap: F
  *** grid_quadv0:                    do_scf: T
  *** grid_quadv0:                    fde_option:                    0
  *** grid_quadv0:                    n_per_rec:                 3070
  *** grid_quadv0:                    calc_type:                    1
  *** grid_quadv0:                    grid_written: F
  *** grid_quadv0:                    grad: T
  *** grid_quadv0:                    kske: F
  *** grid_quadv0:                    kslap: F
  *** grid_quadv0:                    do_scf: T
  *** grid_quadv0:                    fde_option:                    0
  *** grid_quadv0:                    n_per_rec:                 3070
  *** grid_quadv0:                    calc_type:                    1
  *** grid_quadv0:                    grid_written: F
  *** grid_quadv0:                    grad: T
  *** grid_quadv0:                    kske: F
  *** grid_quadv0:                    kslap: F
  *** grid_quadv0:                    do_scf: T
  *** grid_quadv0:                    fde_option:                    0
  *** grid_quadv0:                    n_per_rec:                 3070
  *** grid_quadv0:                    calc_type:                    1
  *** grid_quadv0:                    grid_written: F
  *** grid_quadv0:                    grad: T
  *** grid_quadv0:                    kske: F
  *** grid_quadv0:                    kslap: F
  *** grid_quadv0:                    do_scf: T
  *** grid_quadv0:                    fde_option:                    0
  *** grid_quadv0:                    n_per_rec:                 3070
  *** grid_quadv0:                    calc_type:                    1
  *** grid_quadv0:                    grid_written: F
  *** grid_quadv0:                    grad: T
  *** grid_quadv0:                    kske: F
  *** grid_quadv0:                    kslap: F
  *** grid_quadv0:                    do_scf: T
  *** grid_quadv0:                    fde_option:                    0
  *** grid_quadv0:                    n_per_rec:                 3070
   0: nuse=   8 avail= 12500000Mb on .
   1: nuse=   8 avail= 12500000Mb on .
   2: nuse=   8 avail= 12500000Mb on .
   3: nuse=   8 avail= 12500000Mb on .
   4: nuse=   8 avail= 12500000Mb on .
   5: nuse=   8 avail= 12500000Mb on .
   6: nuse=   8 avail= 12500000Mb on .
   7: nuse=   8 avail= 12500000Mb on .
 l_cube input   11.00

  atom type   l_cube   no. cubes   segmts   rad   sub
 ----------- -------- ----------- -------- ----- -----
        1     11.14       282         7      39     8

 Grid_pts file          = ./be.gridpts.0
 Record size in doubles =  12289        No. of grid_pts per rec  =   3070
 Max. records in memory =      3        Max. recs in file   = 126656358

 me   0 NQTOTC NQ/cube    4275      44
 me   1 NQTOTC NQ/cube    2541      79
 me   2 NQTOTC NQ/cube    3119     124
 me   3 NQTOTC NQ/cube    2547      74
 me   4 NQTOTC NQ/cube    2452     136
 me   5 NQTOTC NQ/cube    2301     100
 me   6 NQTOTC NQ/cube    2611     100
 me   7 NQTOTC NQ/cube    1990      71

 XC quadr. integrated density :       4.000000 npts:    21560 nctrs:        1

    Fock_xc Build Time:          0.0s


     <<<<<<    Before call to GETVCOUL.   >>>>>>
     <<<<<< date:  May  8  time: 11:47:15 >>>>>>



     <<<<<<    End of parallel region.    >>>>>>
     <<<<<< date:  May  8  time: 11:47:15 >>>>>>

    Total Fock Matrix Build Time:          0.1s
 Etnew, Ecore, Ecoul, Exc(1), Exc(2), Totsic:   -14.635301971827534       -19.061953657236007        7.1559714798676044       -2.7293197944591325        0.0000000000000000        0.0000000000000000     
  delta =   -14.635301971827534     
  delta =   -14.635301971827534     
  delta =   -14.635301971827534     
  delta =   -14.635301971827534     


         Total DFT energy =      -14.635301971828
      One electron energy =      -19.061953657236
           Coulomb energy =        7.155971479868
    Exchange-Corr. energy =       -2.729319794459
 Nuclear repulsion energy =        0.000000000000

 Numeric. integr. density =        3.999999991294

  delta =   -14.635301971827534     
  delta =   -14.635301971827534     
  delta =   -14.635301971827534     
  delta =   -14.635301971827534     
     Total iterative time =      1.4s




     <<<<<<        calling diis driver    >>>>>>
     <<<<<< date:  May  8  time: 11:47:15 >>>>>>

 nhist                     1  pulay matrix 
   0.0000E+00
  -1.0000E+00   4.1101E-02


     <<<<<<         called diis driver    >>>>>>
     <<<<<< date:  May  8  time: 11:47:15 >>>>>>


 global array: fock transf[1:55,1:55],  handle: -967 

            1           2           3           4           5           6  
       ----------- ----------- ----------- ----------- ----------- -----------
   1       2.30193    -0.00000    -0.00000    -0.00000    -2.66690    -0.00000
   2      -0.00000     4.42631    -0.00000     0.00000     0.00000     0.00000
   3      -0.00000    -0.00000     4.42631     0.00000     0.00000     0.00000
   4      -0.00000     0.00000     0.00000     4.42631     0.00000     0.00000
   5      -2.66690     0.00000     0.00000     0.00000     7.86378     0.00000
   6      -0.00000     0.00000     0.00000     0.00000     0.00000     1.29269
   7      -0.00000    -0.00000     0.00000     0.00000     0.00000     0.00000
   8       0.00000     0.00000     0.00000     0.00000    -0.00000    -0.00000
   9      -0.00000    -0.00000    -0.00000     0.00000     0.00000     0.00000
  10      -0.00000     0.00000    -0.00000     0.00000    -0.00000     0.00000
  11      -0.00000    -0.00000     0.00000    -0.00000     0.00000    -0.00000
  12      -0.00000    -0.00000     0.00000     0.00000     0.00000    -0.00000
  13       0.00000     0.08505    -0.08259     0.06500    -0.00000    -0.00000
  14      -0.00000     0.02033    -0.06911    -0.11441     0.00000    -0.00000
  15      -0.00000    -0.10311    -0.08174     0.03106     0.00000    -0.00000
  16       0.03123     0.00000     0.00000     0.00000     1.39995    -0.00000
  17      -0.00000     0.00000    -0.00000     0.00000     0.00000    -0.00000
  18       0.00000     0.00000    -0.00000    -0.00000     0.00000    -0.00000
  19       0.00000    -0.02980     0.13367     0.00750    -0.00000    -0.00000
  20       0.00000     0.06274     0.02073    -0.12019    -0.00000     0.00000
  21       0.00000     0.11827     0.02268     0.06565    -0.00000     0.00000
  22      -0.00000     0.00000     0.00000     0.00000     0.00000     0.44851
  23       0.12559    -0.00000    -0.00000    -0.00000    -0.28216    -0.00000
  24       0.00000     0.00000     0.00000    -0.00000     0.00000     0.00000
  25       0.00000     0.00000     0.00000    -0.00000    -0.00000    -0.00000
  26       0.00000     0.00000     0.00000    -0.00000     0.00000    -0.00000
  27      -0.00000     0.00000    -0.00000     0.00000    -0.00000    -0.00000
  28       0.00000    -0.00000     0.00000    -0.00000     0.00000     0.00000
  29       0.00000     0.00000     0.00000     0.00000    -0.00000    -0.00000
  30      -0.00000     0.00010     0.00062    -0.00029     0.00000    -0.00000
  31      -0.00000     0.00069    -0.00008     0.00005     0.00000     0.00000
  32      -0.00000    -0.00001     0.00030     0.00063     0.00000     0.00000
  33      -0.16011     0.00000     0.00000     0.00000     0.12879     0.00000
  34      -0.00000    -0.03117     0.02241     0.03450     0.00000    -0.00000
  35      -0.00000    -0.00573    -0.04523     0.02421     0.00000     0.00000
  36       0.00000     0.04074     0.01079     0.02980    -0.00000     0.00000
  37      -0.00000    -0.00000     0.00000    -0.00000    -0.00000     0.00000
  38       0.00000    -0.00000     0.00000    -0.00000    -0.00000     0.00000
  39      -0.00000     0.00000    -0.00000    -0.00000    -0.00000     0.00000
  40      -0.00000    -0.00000    -0.00000     0.00000     0.00000    -0.00000
  41      -0.00000     0.00000    -0.00000    -0.00000    -0.00000     0.00000
  42       0.00000    -0.02747     0.02174     0.02511    -0.00000     0.00000
  43      -0.00000     0.02671    -0.00490     0.03347     0.00000     0.00000
  44      -0.00000     0.01974     0.03690    -0.01035     0.00000     0.00000
  45       0.00000    -0.00584    -0.01135    -0.03676    -0.00000     0.00000
  46      -0.00000     0.03628    -0.01401    -0.00143     0.00000     0.00000
  47       0.00000    -0.01282    -0.03449     0.01268    -0.00000     0.00000
  48       0.07176     0.00000     0.00000     0.00000    -0.24695    -0.00000
  49      -0.00000     0.00000     0.00000    -0.00000     0.00000     0.00000
  50      -0.00000    -0.00000     0.00000    -0.00000     0.00000     0.00000
  51       0.04690     0.00000     0.00000     0.00000    -0.04490     0.00000
  52      -0.00000     0.00244     0.00802    -0.00291     0.00000    -0.00000
  53       0.00000    -0.00076    -0.00281    -0.00838    -0.00000     0.00000
  54      -0.00000     0.00850    -0.00255     0.00008     0.00000     0.00000
  55       0.01211    -0.00000    -0.00000    -0.00000    -0.00692    -0.00000

            7           8           9          10          11          12  
       ----------- ----------- ----------- ----------- ----------- -----------
   1      -0.00000     0.00000    -0.00000    -0.00000    -0.00000    -0.00000
   2      -0.00000     0.00000    -0.00000     0.00000    -0.00000    -0.00000
   3       0.00000     0.00000    -0.00000    -0.00000     0.00000     0.00000
   4       0.00000     0.00000     0.00000     0.00000    -0.00000     0.00000
   5       0.00000    -0.00000     0.00000    -0.00000     0.00000     0.00000
   6       0.00000    -0.00000     0.00000     0.00000    -0.00000    -0.00000
   7       1.16247    -0.00000     0.00000     0.00000    -0.00000    -0.00000
   8      -0.00000     1.16247    -0.00000     0.00000    -0.00000     0.00000
   9       0.00000    -0.00000     1.16247     0.00000    -0.00000     0.00000
  10       0.00000     0.00000     0.00000     1.29269    -0.00000     0.00000
  11      -0.00000    -0.00000    -0.00000    -0.00000     1.29269     0.00000
  12      -0.00000     0.00000     0.00000     0.00000     0.00000     1.29269
  13      -0.00000     0.00000     0.00000    -0.00000     0.00000     0.00000
  14      -0.00000     0.00000     0.00000     0.00000     0.00000     0.00000
  15       0.00000     0.00000     0.00000    -0.00000     0.00000     0.00000
  16       0.00000     0.00000    -0.00000     0.00000    -0.00000    -0.00000
  17      -0.00000     0.00000    -0.00000     0.00000    -0.00000     0.00000
  18       0.00000    -0.00000     0.00000     0.00000     0.00000    -0.00000
  19       0.00000     0.00000    -0.00000     0.00000    -0.00000    -0.00000
  20       0.00000     0.00000     0.00000     0.00000    -0.00000     0.00000
  21      -0.00000    -0.00000    -0.00000    -0.00000     0.00000    -0.00000
  22      -0.00000     0.00000    -0.00000    -0.00000    -0.00000    -0.00000
  23       0.00000    -0.00000    -0.00000    -0.00000    -0.00000    -0.00000
  24       0.31320    -0.05816    -0.24208     0.00000     0.00000     0.00000
  25      -0.21612    -0.25665    -0.21795    -0.00000    -0.00000     0.00000
  26      -0.12361     0.30138    -0.23232    -0.00000     0.00000     0.00000
  27      -0.00000    -0.00000    -0.00000     0.10391     0.31792    -0.29883
  28       0.00000     0.00000    -0.00000     0.06761    -0.31521    -0.31183
  29       0.00000    -0.00000    -0.00000    -0.43104     0.02719    -0.12095
  30      -0.00000     0.00000     0.00000     0.00000    -0.00000    -0.00000
  31       0.00000    -0.00000     0.00000    -0.00000     0.00000     0.00000
  32      -0.00000     0.00000     0.00000    -0.00000    -0.00000    -0.00000
  33      -0.00000     0.00000     0.00000     0.00000     0.00000     0.00000
  34      -0.00000    -0.00000    -0.00000     0.00000    -0.00000    -0.00000
  35      -0.00000    -0.00000     0.00000    -0.00000     0.00000     0.00000
  36      -0.00000    -0.00000    -0.00000    -0.00000     0.00000    -0.00000
  37      -0.00000     0.00000    -0.00000    -0.00000    -0.00000     0.00000
  38       0.00000    -0.00000     0.00000    -0.00000     0.00000    -0.00000
  39      -0.11732     0.03647     0.02710    -0.00000    -0.00000    -0.00000
  40       0.02475    -0.01165     0.12280    -0.00000    -0.00000    -0.00000
  41      -0.03811    -0.11984    -0.00369     0.00000    -0.00000     0.00000
  42       0.00000     0.00000    -0.00000     0.00000    -0.00000    -0.00000
  43       0.00000     0.00000    -0.00000    -0.00000     0.00000    -0.00000
  44      -0.00000     0.00000     0.00000     0.00000    -0.00000    -0.00000
  45       0.00000    -0.00000     0.00000    -0.00000     0.00000    -0.00000
  46      -0.00000     0.00000    -0.00000     0.00000    -0.00000    -0.00000
  47      -0.00000    -0.00000     0.00000     0.00000    -0.00000    -0.00000
  48      -0.00000    -0.00000    -0.00000     0.00000    -0.00000    -0.00000
  49      -0.00000     0.00000    -0.00000    -0.00000    -0.00000     0.00000
  50       0.00000    -0.00000     0.00000    -0.00000    -0.00000    -0.00000
  51       0.00000    -0.00000    -0.00000    -0.00000    -0.00000    -0.00000
  52       0.00000     0.00000    -0.00000    -0.00000     0.00000     0.00000
  53       0.00000     0.00000     0.00000    -0.00000     0.00000    -0.00000
  54      -0.00000     0.00000     0.00000     0.00000    -0.00000    -0.00000
  55       0.00000     0.00000     0.00000    -0.00000     0.00000    -0.00000

           13          14          15          16          17          18  
       ----------- ----------- ----------- ----------- ----------- -----------
   1       0.00000    -0.00000    -0.00000     0.03123    -0.00000     0.00000
   2       0.08505     0.02033    -0.10311     0.00000     0.00000     0.00000
   3      -0.08259    -0.06911    -0.08174     0.00000    -0.00000    -0.00000
   4       0.06500    -0.11441     0.03106     0.00000     0.00000    -0.00000
   5      -0.00000     0.00000     0.00000     1.39995     0.00000     0.00000
   6      -0.00000    -0.00000    -0.00000    -0.00000    -0.00000    -0.00000
   7      -0.00000    -0.00000     0.00000     0.00000    -0.00000     0.00000
   8       0.00000     0.00000     0.00000     0.00000     0.00000    -0.00000
   9       0.00000     0.00000     0.00000    -0.00000    -0.00000     0.00000
  10      -0.00000     0.00000    -0.00000     0.00000     0.00000     0.00000
  11       0.00000     0.00000     0.00000    -0.00000    -0.00000     0.00000
  12       0.00000     0.00000     0.00000    -0.00000     0.00000    -0.00000
  13       1.18264    -0.00000    -0.00000    -0.00000    -0.00000    -0.00000
  14      -0.00000     1.18264     0.00000     0.00000     0.00000    -0.00000
  15      -0.00000     0.00000     1.18264     0.00000     0.00000    -0.00000
  16      -0.00000     0.00000     0.00000     2.10031    -0.00000    -0.00000
  17      -0.00000     0.00000     0.00000    -0.00000     1.16247     0.00000
  18      -0.00000    -0.00000    -0.00000    -0.00000     0.00000     1.16247
  19       0.13219     0.10811     0.07699    -0.00000    -0.00000    -0.00000
  20       0.04231    -0.13732     0.12018    -0.00000    -0.00000    -0.00000
  21      -0.12579     0.06742     0.12132    -0.00000     0.00000     0.00000
  22      -0.00000     0.00000     0.00000    -0.00000    -0.00000    -0.00000
  23       0.00000    -0.00000    -0.00000    -0.55795    -0.00000     0.00000
  24       0.00000     0.00000     0.00000     0.00000    -0.00000     0.00000
  25      -0.00000    -0.00000    -0.00000     0.00000    -0.00000    -0.00000
  26      -0.00000    -0.00000    -0.00000     0.00000    -0.00000     0.00000
  27      -0.00000    -0.00000    -0.00000     0.00000     0.00000    -0.00000
  28      -0.00000    -0.00000    -0.00000     0.00000    -0.00000     0.00000
  29       0.00000    -0.00000    -0.00000    -0.00000     0.00000     0.00000
  30       0.28164     0.03479     0.31649     0.00000    -0.00000     0.00000
  31      -0.31067    -0.06245     0.28333     0.00000    -0.00000     0.00000
  32      -0.06968     0.41903     0.01595     0.00000     0.00000     0.00000
  33      -0.00000     0.00000     0.00000     0.08984    -0.00000     0.00000
  34       0.04286     0.11625    -0.04653     0.00000    -0.00000    -0.00000
  35      -0.09144    -0.00454    -0.09557     0.00000     0.00000     0.00000
  36      -0.08554     0.06310     0.07885    -0.00000     0.00000     0.00000
  37      -0.00000     0.00000     0.00000    -0.00000    -0.13948    -0.37500
  38      -0.00000    -0.00000    -0.00000     0.00000    -0.37500     0.13948
  39      -0.00000    -0.00000    -0.00000    -0.00000    -0.00000    -0.00000
  40       0.00000     0.00000    -0.00000    -0.00000     0.00000     0.00000
  41       0.00000     0.00000    -0.00000    -0.00000     0.00000    -0.00000
  42       0.00285     0.00563    -0.00209    -0.00000     0.00000    -0.00000
  43      -0.00553     0.00336     0.00150     0.00000    -0.00000    -0.00000
  44       0.00233     0.00110     0.00613     0.00000     0.00000     0.00000
  45      -0.00097     0.00243     0.00019    -0.00000    -0.00000    -0.00000
  46       0.00207     0.00093    -0.00132     0.00000     0.00000     0.00000
  47       0.00129     0.00034     0.00227    -0.00000    -0.00000     0.00000
  48      -0.00000     0.00000     0.00000    -0.19553     0.00000    -0.00000
  49      -0.00000     0.00000     0.00000    -0.00000     0.01530    -0.12487
  50      -0.00000     0.00000     0.00000     0.00000    -0.12487    -0.01530
  51      -0.00000     0.00000     0.00000     0.13647     0.00000    -0.00000
  52      -0.00149    -0.00040    -0.00230     0.00000    -0.00000    -0.00000
  53      -0.00087     0.00262     0.00011    -0.00000    -0.00000    -0.00000
  54       0.00217     0.00078    -0.00153     0.00000     0.00000     0.00000
  55       0.00000    -0.00000    -0.00000     0.11604     0.00000    -0.00000

           19          20          21          22          23          24  
       ----------- ----------- ----------- ----------- ----------- -----------
   1       0.00000     0.00000     0.00000    -0.00000     0.12559     0.00000
   2      -0.02980     0.06274     0.11827     0.00000    -0.00000     0.00000
   3       0.13367     0.02073     0.02268     0.00000    -0.00000     0.00000
   4       0.00750    -0.12019     0.06565     0.00000    -0.00000    -0.00000
   5      -0.00000    -0.00000    -0.00000     0.00000    -0.28216     0.00000
   6      -0.00000     0.00000     0.00000     0.44851    -0.00000     0.00000
   7       0.00000     0.00000    -0.00000    -0.00000     0.00000     0.31320
   8       0.00000     0.00000    -0.00000     0.00000    -0.00000    -0.05816
   9      -0.00000     0.00000    -0.00000    -0.00000    -0.00000    -0.24208
  10       0.00000     0.00000    -0.00000    -0.00000    -0.00000     0.00000
  11      -0.00000    -0.00000     0.00000    -0.00000    -0.00000     0.00000
  12      -0.00000     0.00000    -0.00000    -0.00000    -0.00000     0.00000
  13       0.13219     0.04231    -0.12579    -0.00000     0.00000     0.00000
  14       0.10811    -0.13732     0.06742     0.00000    -0.00000     0.00000
  15       0.07699     0.12018     0.12132     0.00000    -0.00000     0.00000
  16      -0.00000    -0.00000    -0.00000    -0.00000    -0.55795     0.00000
  17      -0.00000    -0.00000     0.00000    -0.00000    -0.00000    -0.00000
  18      -0.00000    -0.00000     0.00000    -0.00000     0.00000     0.00000
  19       1.02602     0.00000    -0.00000     0.00000     0.00000    -0.00000
  20       0.00000     1.02602     0.00000    -0.00000     0.00000     0.00000
  21      -0.00000     0.00000     1.02602    -0.00000     0.00000    -0.00000
  22       0.00000    -0.00000    -0.00000     0.84844    -0.00000    -0.00000
  23       0.00000     0.00000     0.00000    -0.00000     0.56315     0.00000
  24      -0.00000     0.00000    -0.00000    -0.00000     0.00000     0.57819
  25      -0.00000     0.00000     0.00000     0.00000     0.00000     0.00000
  26      -0.00000     0.00000     0.00000     0.00000     0.00000     0.00000
  27       0.00000     0.00000    -0.00000    -0.00000    -0.00000     0.00000
  28      -0.00000     0.00000     0.00000    -0.00000     0.00000    -0.00000
  29      -0.00000     0.00000    -0.00000     0.00000    -0.00000    -0.00000
  30      -0.18754    -0.12963    -0.01525     0.00000    -0.00000    -0.00000
  31       0.07463    -0.08459    -0.19870    -0.00000    -0.00000     0.00000
  32      -0.10708     0.16807    -0.11177    -0.00000    -0.00000     0.00000
  33      -0.00000    -0.00000    -0.00000     0.00000    -0.32248    -0.00000
  34       0.27960    -0.37677    -0.06107     0.00000    -0.00000    -0.00000
  35      -0.38049    -0.28113    -0.00760    -0.00000    -0.00000     0.00000
  36       0.03023    -0.05360     0.46912     0.00000     0.00000    -0.00000
  37      -0.00000    -0.00000     0.00000     0.00000    -0.00000     0.00000
  38      -0.00000    -0.00000     0.00000     0.00000     0.00000    -0.00000
  39      -0.00000    -0.00000     0.00000     0.00000    -0.00000    -0.25708
  40       0.00000     0.00000    -0.00000    -0.00000    -0.00000    -0.12055
  41      -0.00000     0.00000    -0.00000    -0.00000    -0.00000    -0.02304
  42       0.00133    -0.00146    -0.00038    -0.00000     0.00000     0.00000
  43      -0.00041    -0.00083     0.00178     0.00000    -0.00000     0.00000
  44       0.00145     0.00110     0.00085     0.00000    -0.00000     0.00000
  45      -0.02328     0.05489    -0.04832    -0.00000     0.00000    -0.00000
  46      -0.04263     0.03102     0.05577    -0.00000    -0.00000     0.00000
  47      -0.05942    -0.04376    -0.02108    -0.00000     0.00000     0.00000
  48      -0.00000    -0.00000    -0.00000    -0.00000     0.25249     0.00000
  49      -0.00000     0.00000     0.00000     0.00000     0.00000     0.00000
  50      -0.00000    -0.00000     0.00000     0.00000     0.00000    -0.00000
  51      -0.00000    -0.00000    -0.00000     0.00000    -0.00873     0.00000
  52       0.05033     0.03441     0.01438     0.00000    -0.00000    -0.00000
  53      -0.02138     0.04642    -0.03622    -0.00000     0.00000     0.00000
  54      -0.03055     0.02420     0.04904    -0.00000    -0.00000    -0.00000
  55       0.00000     0.00000     0.00000    -0.00000    -0.07115    -0.00000

           25          26          27          28          29          30  
       ----------- ----------- ----------- ----------- ----------- -----------
   1       0.00000     0.00000    -0.00000     0.00000     0.00000    -0.00000
   2       0.00000     0.00000     0.00000    -0.00000     0.00000     0.00010
   3       0.00000     0.00000    -0.00000     0.00000     0.00000     0.00062
   4      -0.00000    -0.00000     0.00000    -0.00000     0.00000    -0.00029
   5      -0.00000     0.00000    -0.00000     0.00000    -0.00000     0.00000
   6      -0.00000    -0.00000    -0.00000     0.00000    -0.00000    -0.00000
   7      -0.21612    -0.12361    -0.00000     0.00000     0.00000    -0.00000
   8      -0.25665     0.30138    -0.00000     0.00000    -0.00000     0.00000
   9      -0.21795    -0.23232    -0.00000    -0.00000    -0.00000     0.00000
  10      -0.00000    -0.00000     0.10391     0.06761    -0.43104     0.00000
  11      -0.00000     0.00000     0.31792    -0.31521     0.02719    -0.00000
  12       0.00000     0.00000    -0.29883    -0.31183    -0.12095    -0.00000
  13      -0.00000    -0.00000    -0.00000    -0.00000     0.00000     0.28164
  14      -0.00000    -0.00000    -0.00000    -0.00000    -0.00000     0.03479
  15      -0.00000    -0.00000    -0.00000    -0.00000    -0.00000     0.31649
  16       0.00000     0.00000     0.00000     0.00000    -0.00000     0.00000
  17      -0.00000    -0.00000     0.00000    -0.00000     0.00000    -0.00000
  18      -0.00000     0.00000    -0.00000     0.00000     0.00000     0.00000
  19      -0.00000    -0.00000     0.00000    -0.00000    -0.00000    -0.18754
  20       0.00000     0.00000     0.00000     0.00000     0.00000    -0.12963
  21       0.00000     0.00000    -0.00000     0.00000    -0.00000    -0.01525
  22       0.00000     0.00000    -0.00000    -0.00000     0.00000     0.00000
  23       0.00000     0.00000    -0.00000     0.00000    -0.00000    -0.00000
  24       0.00000     0.00000     0.00000    -0.00000    -0.00000    -0.00000
  25       0.57819    -0.00000     0.00000    -0.00000     0.00000    -0.00000
  26      -0.00000     0.57819    -0.00000    -0.00000    -0.00000    -0.00000
  27       0.00000    -0.00000     0.84844    -0.00000     0.00000    -0.00000
  28      -0.00000    -0.00000    -0.00000     0.84844    -0.00000     0.00000
  29       0.00000    -0.00000     0.00000     0.00000     0.84844    -0.00000
  30      -0.00000    -0.00000    -0.00000     0.00000    -0.00000     0.88278
  31      -0.00000    -0.00000     0.00000    -0.00000    -0.00000    -0.00000
  32      -0.00000     0.00000     0.00000    -0.00000     0.00000    -0.00000
  33      -0.00000    -0.00000     0.00000    -0.00000     0.00000     0.00000
  34      -0.00000    -0.00000     0.00000    -0.00000    -0.00000    -0.00048
  35      -0.00000    -0.00000     0.00000    -0.00000    -0.00000     0.01934
  36      -0.00000    -0.00000    -0.00000     0.00000    -0.00000    -0.00105
  37      -0.00000    -0.00000    -0.00000     0.00000     0.00000    -0.00000
  38      -0.00000    -0.00000     0.00000    -0.00000     0.00000    -0.00000
  39       0.05710     0.10864     0.00000    -0.00000    -0.00000    -0.00000
  40      -0.16482    -0.19864     0.00000    -0.00000    -0.00000    -0.00000
  41       0.22523    -0.17290    -0.00000     0.00000    -0.00000    -0.00000
  42       0.00000     0.00000    -0.00000     0.00000     0.00000     0.02488
  43      -0.00000    -0.00000     0.00000    -0.00000     0.00000    -0.07155
  44      -0.00000    -0.00000     0.00000    -0.00000    -0.00000     0.19479
  45       0.00000     0.00000    -0.00000    -0.00000    -0.00000     0.00672
  46      -0.00000    -0.00000     0.00000    -0.00000    -0.00000    -0.01043
  47      -0.00000     0.00000     0.00000     0.00000     0.00000    -0.05725
  48       0.00000     0.00000    -0.00000     0.00000    -0.00000     0.00000
  49      -0.00000    -0.00000     0.00000     0.00000     0.00000     0.00000
  50      -0.00000    -0.00000    -0.00000     0.00000     0.00000    -0.00000
  51       0.00000     0.00000    -0.00000    -0.00000     0.00000     0.00000
  52       0.00000     0.00000    -0.00000     0.00000     0.00000    -0.07920
  53      -0.00000     0.00000     0.00000     0.00000     0.00000    -0.00816
  54       0.00000     0.00000    -0.00000     0.00000     0.00000     0.01035
  55      -0.00000     0.00000     0.00000     0.00000     0.00000    -0.00000

           31          32          33          34          35          36  
       ----------- ----------- ----------- ----------- ----------- -----------
   1      -0.00000    -0.00000    -0.16011    -0.00000    -0.00000     0.00000
   2       0.00069    -0.00001     0.00000    -0.03117    -0.00573     0.04074
   3      -0.00008     0.00030     0.00000     0.02241    -0.04523     0.01079
   4       0.00005     0.00063     0.00000     0.03450     0.02421     0.02980
   5       0.00000     0.00000     0.12879     0.00000     0.00000    -0.00000
   6       0.00000     0.00000     0.00000    -0.00000     0.00000     0.00000
   7       0.00000    -0.00000    -0.00000    -0.00000    -0.00000    -0.00000
   8      -0.00000     0.00000     0.00000    -0.00000    -0.00000    -0.00000
   9       0.00000     0.00000     0.00000    -0.00000     0.00000    -0.00000
  10      -0.00000    -0.00000     0.00000     0.00000    -0.00000    -0.00000
  11       0.00000    -0.00000     0.00000    -0.00000     0.00000     0.00000
  12       0.00000    -0.00000     0.00000    -0.00000     0.00000    -0.00000
  13      -0.31067    -0.06968    -0.00000     0.04286    -0.09144    -0.08554
  14      -0.06245     0.41903     0.00000     0.11625    -0.00454     0.06310
  15       0.28333     0.01595     0.00000    -0.04653    -0.09557     0.07885
  16       0.00000     0.00000     0.08984     0.00000     0.00000    -0.00000
  17      -0.00000     0.00000    -0.00000    -0.00000     0.00000     0.00000
  18       0.00000     0.00000     0.00000    -0.00000     0.00000     0.00000
  19       0.07463    -0.10708    -0.00000     0.27960    -0.38049     0.03023
  20      -0.08459     0.16807    -0.00000    -0.37677    -0.28113    -0.05360
  21      -0.19870    -0.11177    -0.00000    -0.06107    -0.00760     0.46912
  22      -0.00000    -0.00000     0.00000     0.00000    -0.00000     0.00000
  23      -0.00000    -0.00000    -0.32248    -0.00000    -0.00000     0.00000
  24       0.00000     0.00000    -0.00000    -0.00000     0.00000    -0.00000
  25      -0.00000    -0.00000    -0.00000    -0.00000    -0.00000    -0.00000
  26      -0.00000     0.00000    -0.00000    -0.00000    -0.00000    -0.00000
  27       0.00000     0.00000     0.00000     0.00000     0.00000    -0.00000
  28      -0.00000    -0.00000    -0.00000    -0.00000    -0.00000     0.00000
  29      -0.00000     0.00000     0.00000    -0.00000    -0.00000    -0.00000
  30      -0.00000    -0.00000     0.00000    -0.00048     0.01934    -0.00105
  31       0.88278    -0.00000     0.00000     0.01163    -0.00056    -0.01549
  32      -0.00000     0.88278     0.00000    -0.01549    -0.00101    -0.01159
  33       0.00000     0.00000     0.35872     0.00000     0.00000    -0.00000
  34       0.01163    -0.01549     0.00000     0.80715     0.00000     0.00000
  35      -0.00056    -0.00101     0.00000     0.00000     0.80715     0.00000
  36      -0.01549    -0.01159    -0.00000     0.00000     0.00000     0.80715
  37       0.00000    -0.00000     0.00000     0.00000    -0.00000     0.00000
  38       0.00000     0.00000     0.00000    -0.00000     0.00000     0.00000
  39       0.00000     0.00000     0.00000    -0.00000    -0.00000    -0.00000
  40      -0.00000     0.00000     0.00000    -0.00000     0.00000     0.00000
  41      -0.00000     0.00000     0.00000    -0.00000    -0.00000     0.00000
  42      -0.13540     0.15726    -0.00000    -0.18783     0.01854     0.01159
  43       0.14307     0.13451     0.00000    -0.01803    -0.07471    -0.17278
  44       0.06985     0.02932     0.00000     0.01237     0.17272    -0.07597
  45      -0.01076    -0.05718    -0.00000    -0.01616    -0.00414    -0.01755
  46       0.05641    -0.01184     0.00000    -0.01801     0.00472     0.01548
  47      -0.01154    -0.00456    -0.00000     0.00077     0.02339    -0.00623
  48       0.00000     0.00000    -0.61634     0.00000     0.00000    -0.00000
  49       0.00000     0.00000     0.00000    -0.00000     0.00000    -0.00000
  50       0.00000     0.00000     0.00000    -0.00000    -0.00000    -0.00000
  51       0.00000     0.00000    -0.28745     0.00000     0.00000    -0.00000
  52      -0.01128    -0.00681     0.00000     0.00115    -0.14390     0.03195
  53       0.00940     0.07932    -0.00000    -0.10572    -0.02307    -0.10010
  54      -0.07894     0.01042     0.00000    -0.10272     0.02213     0.10338
  55      -0.00000    -0.00000     0.00925    -0.00000    -0.00000     0.00000

           37          38          39          40          41          42  
       ----------- ----------- ----------- ----------- ----------- -----------
   1      -0.00000     0.00000    -0.00000    -0.00000    -0.00000     0.00000
   2      -0.00000    -0.00000     0.00000    -0.00000     0.00000    -0.02747
   3       0.00000     0.00000    -0.00000    -0.00000    -0.00000     0.02174
   4      -0.00000    -0.00000    -0.00000     0.00000    -0.00000     0.02511
   5      -0.00000    -0.00000    -0.00000     0.00000    -0.00000    -0.00000
   6       0.00000     0.00000     0.00000    -0.00000     0.00000     0.00000
   7      -0.00000     0.00000    -0.11732     0.02475    -0.03811     0.00000
   8       0.00000    -0.00000     0.03647    -0.01165    -0.11984     0.00000
   9      -0.00000     0.00000     0.02710     0.12280    -0.00369    -0.00000
  10      -0.00000    -0.00000    -0.00000    -0.00000     0.00000     0.00000
  11      -0.00000     0.00000    -0.00000    -0.00000    -0.00000    -0.00000
  12       0.00000    -0.00000    -0.00000    -0.00000     0.00000    -0.00000
  13      -0.00000    -0.00000    -0.00000     0.00000     0.00000     0.00285
  14       0.00000    -0.00000    -0.00000     0.00000     0.00000     0.00563
  15       0.00000    -0.00000    -0.00000    -0.00000    -0.00000    -0.00209
  16      -0.00000     0.00000    -0.00000    -0.00000    -0.00000    -0.00000
  17      -0.13948    -0.37500    -0.00000     0.00000     0.00000     0.00000
  18      -0.37500     0.13948    -0.00000     0.00000    -0.00000    -0.00000
  19      -0.00000    -0.00000    -0.00000     0.00000    -0.00000     0.00133
  20      -0.00000    -0.00000    -0.00000     0.00000     0.00000    -0.00146
  21       0.00000     0.00000     0.00000    -0.00000    -0.00000    -0.00038
  22       0.00000     0.00000     0.00000    -0.00000    -0.00000    -0.00000
  23      -0.00000     0.00000    -0.00000    -0.00000    -0.00000     0.00000
  24       0.00000    -0.00000    -0.25708    -0.12055    -0.02304     0.00000
  25      -0.00000    -0.00000     0.05710    -0.16482     0.22523     0.00000
  26      -0.00000    -0.00000     0.10864    -0.19864    -0.17290     0.00000
  27      -0.00000     0.00000     0.00000     0.00000    -0.00000    -0.00000
  28       0.00000    -0.00000    -0.00000    -0.00000     0.00000     0.00000
  29       0.00000     0.00000    -0.00000    -0.00000    -0.00000     0.00000
  30      -0.00000    -0.00000    -0.00000    -0.00000    -0.00000     0.02488
  31       0.00000     0.00000     0.00000    -0.00000    -0.00000    -0.13540
  32      -0.00000     0.00000     0.00000     0.00000     0.00000     0.15726
  33       0.00000     0.00000     0.00000     0.00000     0.00000    -0.00000
  34       0.00000    -0.00000    -0.00000    -0.00000    -0.00000    -0.18783
  35      -0.00000     0.00000    -0.00000     0.00000    -0.00000     0.01854
  36       0.00000     0.00000    -0.00000     0.00000     0.00000     0.01159
  37       0.57819     0.00000    -0.00000     0.00000     0.00000    -0.00000
  38       0.00000     0.57819    -0.00000    -0.00000    -0.00000     0.00000
  39      -0.00000    -0.00000     0.43648    -0.00000     0.00000    -0.00000
  40       0.00000    -0.00000    -0.00000     0.43648    -0.00000    -0.00000
  41       0.00000    -0.00000     0.00000     0.00000     0.43648    -0.00000
  42      -0.00000     0.00000    -0.00000    -0.00000    -0.00000     0.34175
  43      -0.00000    -0.00000    -0.00000     0.00000    -0.00000     0.00000
  44      -0.00000     0.00000    -0.00000    -0.00000    -0.00000     0.00000
  45      -0.00000    -0.00000    -0.00000    -0.00000    -0.00000    -0.10280
  46       0.00000     0.00000    -0.00000    -0.00000    -0.00000    -0.13618
  47       0.00000     0.00000     0.00000    -0.00000    -0.00000    -0.00807
  48       0.00000     0.00000     0.00000     0.00000     0.00000    -0.00000
  49       0.25294    -0.13105    -0.00000    -0.00000     0.00000    -0.00000
  50       0.13105     0.25294    -0.00000     0.00000    -0.00000     0.00000
  51       0.00000     0.00000     0.00000     0.00000    -0.00000    -0.00000
  52       0.00000    -0.00000     0.00000    -0.00000     0.00000    -0.00569
  53      -0.00000    -0.00000     0.00000     0.00000    -0.00000     0.04129
  54      -0.00000     0.00000     0.00000     0.00000     0.00000     0.04724
  55      -0.00000     0.00000     0.00000    -0.00000    -0.00000     0.00000

           43          44          45          46          47          48  
       ----------- ----------- ----------- ----------- ----------- -----------
   1      -0.00000    -0.00000     0.00000    -0.00000     0.00000     0.07176
   2       0.02671     0.01974    -0.00584     0.03628    -0.01282     0.00000
   3      -0.00490     0.03690    -0.01135    -0.01401    -0.03449     0.00000
   4       0.03347    -0.01035    -0.03676    -0.00143     0.01268     0.00000
   5       0.00000     0.00000    -0.00000     0.00000    -0.00000    -0.24695
   6       0.00000     0.00000     0.00000     0.00000     0.00000    -0.00000
   7       0.00000    -0.00000     0.00000    -0.00000    -0.00000    -0.00000
   8       0.00000     0.00000    -0.00000     0.00000    -0.00000    -0.00000
   9      -0.00000     0.00000     0.00000    -0.00000     0.00000    -0.00000
  10      -0.00000     0.00000    -0.00000     0.00000     0.00000     0.00000
  11       0.00000    -0.00000     0.00000    -0.00000    -0.00000    -0.00000
  12      -0.00000    -0.00000    -0.00000    -0.00000    -0.00000    -0.00000
  13      -0.00553     0.00233    -0.00097     0.00207     0.00129    -0.00000
  14       0.00336     0.00110     0.00243     0.00093     0.00034     0.00000
  15       0.00150     0.00613     0.00019    -0.00132     0.00227     0.00000
  16       0.00000     0.00000    -0.00000     0.00000    -0.00000    -0.19553
  17      -0.00000     0.00000    -0.00000     0.00000    -0.00000     0.00000
  18      -0.00000     0.00000    -0.00000     0.00000     0.00000    -0.00000
  19      -0.00041     0.00145    -0.02328    -0.04263    -0.05942    -0.00000
  20      -0.00083     0.00110     0.05489     0.03102    -0.04376    -0.00000
  21       0.00178     0.00085    -0.04832     0.05577    -0.02108    -0.00000
  22       0.00000     0.00000    -0.00000    -0.00000    -0.00000    -0.00000
  23      -0.00000    -0.00000     0.00000    -0.00000     0.00000     0.25249
  24       0.00000     0.00000    -0.00000     0.00000     0.00000     0.00000
  25      -0.00000    -0.00000     0.00000    -0.00000    -0.00000     0.00000
  26      -0.00000    -0.00000     0.00000    -0.00000     0.00000     0.00000
  27       0.00000     0.00000    -0.00000     0.00000     0.00000    -0.00000
  28      -0.00000    -0.00000    -0.00000    -0.00000     0.00000     0.00000
  29       0.00000    -0.00000    -0.00000    -0.00000     0.00000    -0.00000
  30      -0.07155     0.19479     0.00672    -0.01043    -0.05725     0.00000
  31       0.14307     0.06985    -0.01076     0.05641    -0.01154     0.00000
  32       0.13451     0.02932    -0.05718    -0.01184    -0.00456     0.00000
  33       0.00000     0.00000    -0.00000     0.00000    -0.00000    -0.61634
  34      -0.01803     0.01237    -0.01616    -0.01801     0.00077     0.00000
  35      -0.07471     0.17272    -0.00414     0.00472     0.02339     0.00000
  36      -0.17278    -0.07597    -0.01755     0.01548    -0.00623    -0.00000
  37      -0.00000    -0.00000    -0.00000     0.00000     0.00000     0.00000
  38      -0.00000     0.00000    -0.00000     0.00000     0.00000     0.00000
  39      -0.00000    -0.00000    -0.00000    -0.00000     0.00000     0.00000
  40       0.00000    -0.00000    -0.00000    -0.00000    -0.00000     0.00000
  41      -0.00000    -0.00000    -0.00000    -0.00000    -0.00000     0.00000
  42       0.00000     0.00000    -0.10280    -0.13618    -0.00807    -0.00000
  43       0.34175    -0.00000    -0.13552     0.10079     0.02556     0.00000
  44      -0.00000     0.34175    -0.01561     0.02178    -0.16870     0.00000
  45      -0.13552    -0.01561     0.14722    -0.00000    -0.00000    -0.00000
  46       0.10079     0.02178    -0.00000     0.14722     0.00000     0.00000
  47       0.02556    -0.16870    -0.00000     0.00000     0.14722    -0.00000
  48       0.00000     0.00000    -0.00000     0.00000    -0.00000    -3.53633
  49      -0.00000     0.00000    -0.00000     0.00000     0.00000    -0.00000
  50       0.00000     0.00000    -0.00000     0.00000     0.00000     0.00000
  51       0.00000     0.00000    -0.00000     0.00000    -0.00000    -1.21367
  52       0.01177    -0.06163     0.00006    -0.00078    -0.01351     0.00000
  53       0.04730     0.00523     0.01350     0.00093     0.00001    -0.00000
  54      -0.03992    -0.01198    -0.00093     0.01347    -0.00078     0.00000
  55      -0.00000    -0.00000     0.00000    -0.00000     0.00000    -0.35769

           49          50          51          52          53          54  
       ----------- ----------- ----------- ----------- ----------- -----------
   1      -0.00000    -0.00000     0.04690    -0.00000     0.00000    -0.00000
   2       0.00000    -0.00000     0.00000     0.00244    -0.00076     0.00850
   3       0.00000     0.00000     0.00000     0.00802    -0.00281    -0.00255
   4      -0.00000    -0.00000     0.00000    -0.00291    -0.00838     0.00008
   5       0.00000    -0.00000    -0.04490     0.00000    -0.00000     0.00000
   6       0.00000     0.00000     0.00000    -0.00000     0.00000     0.00000
   7      -0.00000     0.00000     0.00000     0.00000     0.00000    -0.00000
   8       0.00000    -0.00000    -0.00000     0.00000     0.00000     0.00000
   9      -0.00000     0.00000    -0.00000    -0.00000     0.00000     0.00000
  10      -0.00000    -0.00000    -0.00000    -0.00000    -0.00000     0.00000
  11      -0.00000    -0.00000    -0.00000     0.00000     0.00000    -0.00000
  12       0.00000    -0.00000    -0.00000     0.00000    -0.00000    -0.00000
  13      -0.00000    -0.00000    -0.00000    -0.00149    -0.00087     0.00217
  14       0.00000     0.00000     0.00000    -0.00040     0.00262     0.00078
  15       0.00000     0.00000     0.00000    -0.00230     0.00011    -0.00153
  16      -0.00000     0.00000     0.13647     0.00000    -0.00000     0.00000
  17       0.01530    -0.12487     0.00000    -0.00000    -0.00000     0.00000
  18      -0.12487    -0.01530    -0.00000    -0.00000    -0.00000     0.00000
  19      -0.00000    -0.00000    -0.00000     0.05033    -0.02138    -0.03055
  20       0.00000    -0.00000    -0.00000     0.03441     0.04642     0.02420
  21       0.00000     0.00000    -0.00000     0.01438    -0.03622     0.04904
  22       0.00000     0.00000     0.00000     0.00000    -0.00000    -0.00000
  23       0.00000     0.00000    -0.00873    -0.00000     0.00000    -0.00000
  24       0.00000    -0.00000     0.00000    -0.00000     0.00000    -0.00000
  25      -0.00000    -0.00000     0.00000     0.00000    -0.00000     0.00000
  26      -0.00000    -0.00000     0.00000     0.00000     0.00000     0.00000
  27       0.00000    -0.00000    -0.00000    -0.00000     0.00000    -0.00000
  28       0.00000     0.00000    -0.00000     0.00000     0.00000     0.00000
  29       0.00000     0.00000     0.00000     0.00000     0.00000     0.00000
  30       0.00000    -0.00000     0.00000    -0.07920    -0.00816     0.01035
  31       0.00000     0.00000     0.00000    -0.01128     0.00940    -0.07894
  32       0.00000     0.00000     0.00000    -0.00681     0.07932     0.01042
  33       0.00000     0.00000    -0.28745     0.00000    -0.00000     0.00000
  34      -0.00000    -0.00000     0.00000     0.00115    -0.10572    -0.10272
  35       0.00000    -0.00000     0.00000    -0.14390    -0.02307     0.02213
  36      -0.00000    -0.00000    -0.00000     0.03195    -0.10010     0.10338
  37       0.25294     0.13105     0.00000     0.00000    -0.00000    -0.00000
  38      -0.13105     0.25294     0.00000    -0.00000    -0.00000     0.00000
  39      -0.00000    -0.00000     0.00000     0.00000     0.00000     0.00000
  40      -0.00000     0.00000     0.00000    -0.00000     0.00000     0.00000
  41       0.00000    -0.00000    -0.00000     0.00000    -0.00000     0.00000
  42      -0.00000     0.00000    -0.00000    -0.00569     0.04129     0.04724
  43      -0.00000     0.00000     0.00000     0.01177     0.04730    -0.03992
  44       0.00000     0.00000     0.00000    -0.06163     0.00523    -0.01198
[...]
  18       2.08097
  19      -0.00000
  20      -0.00000
  21       2.08097
  22      -0.00000
  23       2.08097
  24       0.10098
  25      -0.00000
  26      -0.00000
  27       0.10098
  28       0.00000
  29       0.10098
  30      -9.89409
  31       0.00000
  32      -0.00000
  33      -9.89409
  34      -0.00000
  35      -9.89409
  36       0.00000
  37       0.00000
  38       0.00000
  39       0.00000
  40       0.00000
  41       0.00000
  42       0.00000
  43       0.00000
  44       0.00000
  45       0.00000
  46       0.00000
  47       0.00000
  48       0.00000
  49       0.00000
  50      -0.00000
  51       0.00000
  52       0.00000
  53       0.00000
  54       0.00000
  55       0.00000
  int_init: cando_txs set to always be  F
                                NWChem TDDFT Module
                                -------------------


            General Information
            -------------------
           No. of orbitals :     110
            Alpha orbitals :      55
             Beta orbitals :      55
        Alpha frozen cores :       0
         Beta frozen cores :       0
     Alpha frozen virtuals :       0
      Beta frozen virtuals :       0
         Spin multiplicity :       1
    Number of AO functions :      55
        Use of symmetry is : off
      Symmetry adaption is : off
         Schwarz screening :  0.10D-07

              XC Information
              --------------
              Hartree-Fock (Exact) Exchange   1.00          
              LC-wPBE(h)Exchange Functional   1.00          
     Perdew 1991 LDA Correlation Functional   1.00 local    
    PerdewBurkeErnz. Correlation Functional   1.00 non-local
           Alpha           :  0.00
           Beta            :  1.00
           Gamma           :  0.35

             TDDFT Information
             -----------------
          Calculation type : TDDFT             
         Wavefunction type : Restricted singlets & triplets
          No. of electrons :       4
           Alpha electrons :       2
            Beta electrons :       2
              No. of roots :       5
          Max subspacesize :    5000
            Max iterations :     100
               Target root :       1
           Target symmetry : none
      Symmetry restriction : off
                 Algorithm : Optimal
        Davidson threshold :  0.10D-03

            Memory Information
            ------------------
          Available GA space size is       52428796975 doubles
          Available MA space size is        4194406644 doubles
          Length of a trial vector is          106
          Algorithm : Incore multiple tensor contraction
          Estimated peak GA usage is           2254160 doubles
          Estimated peak MA usage is             18000 doubles

    5 smallest eigenvalue differences (eV) 
--------------------------------------------------------
  No. Spin  Occ  Vir  Irrep   E(Occ)    E(Vir)   E(Diff)
--------------------------------------------------------
    1    1    2    3 a        -0.324     0.010     9.098
    2    1    2    4 a        -0.324     0.010     9.098
    3    1    2    5 a        -0.324     0.010     9.098
    4    1    2    6 a        -0.324     0.032     9.695
    5    1    2    7 a        -0.324     0.036     9.789
--------------------------------------------------------

  Entering Davidson iterations
  Restricted singlet excited states

  Iter   NTrls   NConv    DeltaV     DeltaE      Time   
  ----  ------  ------  ---------  ---------  --------- 
    1      5       0     0.98E-01   0.10+100        1.2
    2     15       0     0.40E-01   0.41E-01        1.8
    3     25       2     0.28E-02   0.67E-03        1.8
    4     31       3     0.11E-03   0.12E-05        1.3
    5     33       5     0.49E-04   0.18E-08        0.8
  ----  ------  ------  ---------  ---------  --------- 
  Convergence criterion met

  Ground state a         -14.637320101109 a.u.

  ----------------------------------------------------------------------------
  Root   1 singlet a              0.182871656 a.u.                4.9762 eV 
  ----------------------------------------------------------------------------
     Transition Moments    X -0.65219   Y  1.74455   Z -0.56701
     Transition Moments   XX -0.00000  XY  0.00000  XZ  0.00000
     Transition Moments   YY -0.00000  YZ -0.00000  ZZ -0.00000
     Dipole Oscillator Strength                    0.4620941149
     Electric Quadrupole                           0.0000000000
     Magnetic Dipole                               0.0000000000
     Total Oscillator Strength                     0.4620941149

     Occ.    2  a   ---  Virt.    3  a    0.48038 X
     Occ.    2  a   ---  Virt.    3  a   -0.05492 Y
     Occ.    2  a   ---  Virt.    4  a    0.18513 X
     Occ.    2  a   ---  Virt.    5  a   -0.52241 X
     Occ.    2  a   ---  Virt.    5  a    0.05972 Y
     Occ.    2  a   ---  Virt.    7  a   -0.69650 X
     Occ.    2  a   ---  Virt.    7  a    0.11815 Y
     Occ.    2  a   ---  Virt.   16  a   -0.05009 Y
  ----------------------------------------------------------------------------
  Root   2 singlet a              0.182871656 a.u.                4.9762 eV 
  ----------------------------------------------------------------------------
     Transition Moments    X  1.67273   Y  0.31858   Z -0.94382
     Transition Moments   XX -0.00000  XY  0.00000  XZ -0.00000
     Transition Moments   YY -0.00000  YZ  0.00000  ZZ -0.00000
     Dipole Oscillator Strength                    0.4620938000
     Electric Quadrupole                           0.0000000000
     Magnetic Dipole                               0.0000000000
     Total Oscillator Strength                     0.4620938000

     Occ.    2  a   ---  Virt.    3  a   -0.50926 X
     Occ.    2  a   ---  Virt.    3  a    0.05822 Y
     Occ.    2  a   ---  Virt.    4  a   -0.12537 X
     Occ.    2  a   ---  Virt.    5  a   -0.51272 X
     Occ.    2  a   ---  Virt.    5  a    0.05861 Y
     Occ.    2  a   ---  Virt.    8  a   -0.30479 X
     Occ.    2  a   ---  Virt.    8  a    0.05170 Y
     Occ.    2  a   ---  Virt.    9  a    0.62627 X
     Occ.    2  a   ---  Virt.    9  a   -0.10624 Y
     Occ.    2  a   ---  Virt.   18  a    0.05277 Y
  ----------------------------------------------------------------------------
  Root   3 singlet a              0.182871656 a.u.                4.9762 eV 
  ----------------------------------------------------------------------------
     Transition Moments    X -0.75295   Y -0.80334   Z -1.60562
     Transition Moments   XX -0.00000  XY -0.00000  XZ -0.00000
     Transition Moments   YY -0.00000  YZ  0.00000  ZZ -0.00000
     Dipole Oscillator Strength                    0.4620938000
     Electric Quadrupole                           0.0000000000
     Magnetic Dipole                               0.0000000000
     Total Oscillator Strength                     0.4620938000

     Occ.    2  a   ---  Virt.    3  a   -0.21871 X
     Occ.    2  a   ---  Virt.    4  a    0.69854 X
     Occ.    2  a   ---  Virt.    4  a   -0.07986 Y
     Occ.    2  a   ---  Virt.    8  a    0.62627 X
     Occ.    2  a   ---  Virt.    8  a   -0.10624 Y
     Occ.    2  a   ---  Virt.    9  a    0.30479 X
     Occ.    2  a   ---  Virt.    9  a   -0.05170 Y
  ----------------------------------------------------------------------------
  Root   4 singlet a              0.239708061 a.u.                6.5228 eV 
  ----------------------------------------------------------------------------
     Transition Moments    X  0.00000   Y -0.00000   Z  0.00000
     Transition Moments   XX -2.56081  XY  0.00000  XZ  0.00000
     Transition Moments   YY -2.56081  YZ  0.00000  ZZ -2.56081
     Dipole Oscillator Strength                    0.0000000000
     Electric Quadrupole                           0.0000000000
     Magnetic Dipole                               0.0000000000
     Total Oscillator Strength                     0.0000000000

     Occ.    2  a   ---  Virt.    6  a    0.98751 X
     Occ.    2  a   ---  Virt.   15  a   -0.15937 X
  ----------------------------------------------------------------------------
  Root   5 singlet a              0.261299001 a.u.                7.1103 eV 
  ----------------------------------------------------------------------------
     Transition Moments    X -0.04614   Y  0.12344   Z -0.04012
     Transition Moments   XX -0.00000  XY -0.00000  XZ -0.00000
     Transition Moments   YY -0.00000  YZ  0.00000  ZZ -0.00000
     Dipole Oscillator Strength                    0.0033058450
     Electric Quadrupole                           0.0000000000
     Magnetic Dipole                               0.0000000000
     Total Oscillator Strength                     0.0033058450

     Occ.    2  a   ---  Virt.    3  a   -0.44265 X
     Occ.    2  a   ---  Virt.    4  a   -0.17060 X
     Occ.    2  a   ---  Virt.    5  a    0.48142 X
     Occ.    2  a   ---  Virt.    7  a   -0.70630 X
     Occ.    2  a   ---  Virt.   16  a    0.16065 X
     Occ.    2  a   ---  Virt.   17  a   -0.12870 X
     Occ.    2  a   ---  Virt.   18  a   -0.06253 X

              Target root =      1
          Target symmetry = none
      Ground state energy =    -14.637320101109
        Excitation energy =      0.182871656005
     Excited state energy =    -14.454448445103

  stored tddft:energy   -14.454448445103321     

    5 smallest eigenvalue differences (eV) 
--------------------------------------------------------
  No. Spin  Occ  Vir  Irrep   E(Occ)    E(Vir)   E(Diff)
--------------------------------------------------------
    1    1    2    3 a        -0.324     0.010     9.098
    2    1    2    4 a        -0.324     0.010     9.098
    3    1    2    5 a        -0.324     0.010     9.098
    4    1    2    6 a        -0.324     0.032     9.695
    5    1    2    7 a        -0.324     0.036     9.789
--------------------------------------------------------

  Entering Davidson iterations
  Restricted triplet excited states

  Iter   NTrls   NConv    DeltaV     DeltaE      Time   
  ----  ------  ------  ---------  ---------  --------- 
    1      5       0     0.11E+00   0.10+100        1.1
    2     15       0     0.61E-01   0.13E+00        1.7
    3     25       2     0.66E-02   0.23E-02        1.8
    4     31       5     0.98E-04   0.62E-05        1.3
  ----  ------  ------  ---------  ---------  --------- 
  Convergence criterion met

  Ground state a         -14.637320101109 a.u.

  ----------------------------------------------------------------------------
  Root   1 triplet a              0.060261699 a.u.                1.6398 eV 
  ----------------------------------------------------------------------------
     Transition Moments                    Spin forbidden
     Oscillator Strength                   Spin forbidden

     Occ.    2  a   ---  Virt.    3  a   -0.41534 X
     Occ.    2  a   ---  Virt.    3  a   -0.14904 Y
     Occ.    2  a   ---  Virt.    4  a   -0.16007 X
     Occ.    2  a   ---  Virt.    4  a   -0.05744 Y
     Occ.    2  a   ---  Virt.    5  a    0.45172 X
     Occ.    2  a   ---  Virt.    5  a    0.16209 Y
     Occ.    2  a   ---  Virt.    7  a    0.81726 X
     Occ.    2  a   ---  Virt.    7  a    0.31122 Y
     Occ.    2  a   ---  Virt.   16  a   -0.23513 X
     Occ.    2  a   ---  Virt.   16  a   -0.11322 Y
     Occ.    2  a   ---  Virt.   17  a    0.18836 X
     Occ.    2  a   ---  Virt.   17  a    0.09070 Y
     Occ.    2  a   ---  Virt.   18  a    0.09153 X
  ----------------------------------------------------------------------------
  Root   2 triplet a              0.060261699 a.u.                1.6398 eV 
  ----------------------------------------------------------------------------
     Transition Moments                    Spin forbidden
     Oscillator Strength                   Spin forbidden

     Occ.    2  a   ---  Virt.    3  a   -0.37953 X
     Occ.    2  a   ---  Virt.    3  a   -0.13619 Y
     Occ.    2  a   ---  Virt.    4  a    0.47485 X
     Occ.    2  a   ---  Virt.    4  a    0.17039 Y
     Occ.    2  a   ---  Virt.    5  a   -0.18069 X
     Occ.    2  a   ---  Virt.    5  a   -0.06484 Y
     Occ.    2  a   ---  Virt.    8  a    0.46788 X
     Occ.    2  a   ---  Virt.    8  a    0.17817 Y
     Occ.    2  a   ---  Virt.    9  a    0.67008 X
     Occ.    2  a   ---  Virt.    9  a    0.25517 Y
     Occ.    2  a   ---  Virt.   16  a   -0.15094 X
     Occ.    2  a   ---  Virt.   16  a   -0.07268 Y
     Occ.    2  a   ---  Virt.   17  a   -0.05704 X
     Occ.    2  a   ---  Virt.   18  a   -0.27037 X
     Occ.    2  a   ---  Virt.   18  a   -0.13019 Y
     Occ.    2  a   ---  Virt.   33  a   -0.05069 X
  ----------------------------------------------------------------------------
  Root   3 triplet a              0.060261699 a.u.                1.6398 eV 
  ----------------------------------------------------------------------------
     Transition Moments                    Spin forbidden
     Oscillator Strength                   Spin forbidden

     Occ.    2  a   ---  Virt.    3  a    0.29263 X
     Occ.    2  a   ---  Virt.    3  a    0.10500 Y
     Occ.    2  a   ---  Virt.    4  a    0.38868 X
     Occ.    2  a   ---  Virt.    4  a    0.13947 Y
     Occ.    2  a   ---  Virt.    5  a    0.40679 X
     Occ.    2  a   ---  Virt.    5  a    0.14597 Y
     Occ.    2  a   ---  Virt.    8  a    0.67008 X
     Occ.    2  a   ---  Virt.    8  a    0.25517 Y
     Occ.    2  a   ---  Virt.    9  a   -0.46788 X
     Occ.    2  a   ---  Virt.    9  a   -0.17817 Y
     Occ.    2  a   ---  Virt.   16  a   -0.14516 X
     Occ.    2  a   ---  Virt.   16  a   -0.06990 Y
     Occ.    2  a   ---  Virt.   17  a   -0.24578 X
     Occ.    2  a   ---  Virt.   17  a   -0.11835 Y
     Occ.    2  a   ---  Virt.   18  a    0.13289 X
     Occ.    2  a   ---  Virt.   18  a    0.06399 Y
  ----------------------------------------------------------------------------
  Root   4 triplet a              0.223297468 a.u.                6.0762 eV 
  ----------------------------------------------------------------------------
     Transition Moments                    Spin forbidden
     Oscillator Strength                   Spin forbidden

     Occ.    2  a   ---  Virt.    6  a   -0.94524 X
     Occ.    2  a   ---  Virt.   15  a    0.32429 X
  ----------------------------------------------------------------------------
  Root   5 triplet a              0.255133400 a.u.                6.9425 eV 
  ----------------------------------------------------------------------------
     Transition Moments                    Spin forbidden
     Oscillator Strength                   Spin forbidden

     Occ.    2  a   ---  Virt.    3  a   -0.52497 X
     Occ.    2  a   ---  Virt.    4  a   -0.20232 X
     Occ.    2  a   ---  Virt.    5  a    0.57095 X
     Occ.    2  a   ---  Virt.    7  a   -0.51467 X
     Occ.    2  a   ---  Virt.   16  a    0.22660 X
     Occ.    2  a   ---  Virt.   17  a   -0.18153 X
     Occ.    2  a   ---  Virt.   18  a   -0.08820 X

              Target root =      1
          Target symmetry = none
      Ground state energy =    -14.637320101109
        Excitation energy =      0.060261698619
     Excited state energy =    -14.577058402490

  stored tddft:energy   -14.577058402489872     

 Task  times  cpu:       11.4s     wall:       13.5s


                                NWChem Input Module
                                -------------------


 Summary of allocated global arrays
-----------------------------------
  No active global arrays


MA_summarize_allocated_blocks: starting scan ...
heap block 'gridpts', handle 64, address 0x133a56c0:
	type of elements:		double precision
	number of elements:		1048471930
	address of client space:	0x133a5740
	index for client space:		12166719
	total number of bytes:		8387775576
MA_summarize_allocated_blocks: scan completed: 1 heap block, 0 stack blocks
MA usage statistics:

	allocation statistics:
					      heap	     stack
					      ----	     -----
	current number of blocks	         1	         0
	maximum number of blocks	        18	        54
	current total bytes		8387775576	         0
	maximum total bytes		8388078632	  22511864
	maximum total K-bytes		   8388079	     22512
	maximum total M-bytes		      8389	        23


                                     CITATION
                                     --------
                Please cite the following reference when publishing
                           results obtained with NWChem:

          E. Apra, E. J. Bylaska, W. A. de Jong, N. Govind, K. Kowalski,
       T. P. Straatsma, M. Valiev, H. J. J. van Dam, Y. Alexeev, J. Anchell,
       V. Anisimov, F. W. Aquino, R. Atta-Fynn, J. Autschbach, N. P. Bauman,
     J. C. Becca, D. E. Bernholdt, K. Bhaskaran-Nair, S. Bogatko, P. Borowski,
         J. Boschen, J. Brabec, A. Bruner, E. Cauet, Y. Chen, G. N. Chuev,
      C. J. Cramer, J. Daily, M. J. O. Deegan, T. H. Dunning Jr., M. Dupuis,
   K. G. Dyall, G. I. Fann, S. A. Fischer, A. Fonari, H. Fruchtl, L. Gagliardi,
      J. Garza, N. Gawande, S. Ghosh, K. Glaesemann, A. W. Gotz, J. Hammond,
       V. Helms, E. D. Hermes, K. Hirao, S. Hirata, M. Jacquelin, L. Jensen,
   B. G. Johnson, H. Jonsson, R. A. Kendall, M. Klemm, R. Kobayashi, V. Konkov,
      S. Krishnamoorthy, M. Krishnan, Z. Lin, R. D. Lins, R. J. Littlefield,
      A. J. Logsdail, K. Lopata, W. Ma, A. V. Marenich, J. Martin del Campo,
   D. Mejia-Rodriguez, J. E. Moore, J. M. Mullin, T. Nakajima, D. R. Nascimento,
    J. A. Nichols, P. J. Nichols, J. Nieplocha, A. Otero-de-la-Roza, B. Palmer,
    A. Panyala, T. Pirojsirikul, B. Peng, R. Peverati, J. Pittner, L. Pollack,
   R. M. Richard, P. Sadayappan, G. C. Schatz, W. A. Shelton, D. W. Silverstein,
   D. M. A. Smith, T. A. Soares, D. Song, M. Swart, H. L. Taylor, G. S. Thomas,
            V. Tipparaju, D. G. Truhlar, K. Tsemekhman, T. Van Voorhis,
      A. Vazquez-Mayagoitia, P. Verma, O. Villa, A. Vishnu, K. D. Vogiatzis,
        D. Wang, J. H. Weare, M. J. Williamson, T. L. Windus, K. Wolinski,
        A. T. Wong, Q. Wu, C. Yang, Q. Yu, M. Zacharias, Z. Zhang, Y. Zhao,
                                and R. J. Harrison
                        "NWChem: Past, present, and future
                         J. Chem. Phys. 152, 184102 (2020)
                               doi:10.1063/5.0004997

                                      AUTHORS
                                      -------
  E. Apra, E. J. Bylaska, N. Govind, K. Kowalski, M. Valiev, D. Mejia-Rodriguez,
       A. Kunitsa, N. P. Bauman, A. Panyala, W. A. de Jong, T. P. Straatsma,
   H. J. J. van Dam, D. Wang, T. L. Windus, J. Hammond, J. Autschbach, A. Woods,
    K. Bhaskaran-Nair, J. Brabec, K. Lopata, S. A. Fischer, S. Krishnamoorthy,
     M. Jacquelin, W. Ma, M. Klemm, O. Villa, Y. Chen, V. Anisimov, F. Aquino,
     S. Hirata, M. T. Hackler, E. Hermes, L. Jensen, J. E. Moore, J. C. Becca,
      V. Konjkov, T. Risthaus, M. Malagoli, A. Marenich, A. Otero-de-la-Roza,
        J. Mullin, P. Nichols, R. Peverati, J. Pittner, Y. Zhao, P.-D. Fan,
        A. Fonari, M. J. Williamson, R. J. Harrison, J. R. Rehr, M. Dupuis,
     D. Silverstein, D. M. A. Smith, J. Nieplocha, V. Tipparaju, M. Krishnan,
     B. E. Van Kuiken, A. Vazquez-Mayagoitia, M. Swart, Q. Wu, T. Van Voorhis,
     A. A. Auer, M. Nooijen, L. D. Crosby, E. Brown, G. Cisneros, G. I. Fann,
   H. Fruchtl, J. Garza, K. Hirao, R. A. Kendall, J. A. Nichols, K. Tsemekhman,
    K. Wolinski, J. Anchell, D. E. Bernholdt, P. Borowski, T. Clark, D. Clerc,
   H. Dachsel, M. J. O. Deegan, K. Dyall, D. Elwood, E. Glendening, M. Gutowski,
   A. C. Hess, J. Jaffe, B. G. Johnson, J. Ju, R. Kobayashi, R. Kutteh, Z. Lin,
   R. Littlefield, X. Long, B. Meng, T. Nakajima, S. Niu, L. Pollack, M. Rosing,
   K. Glaesemann, G. Sandrone, M. Stave, H. Taylor, G. Thomas, J. H. van Lenthe,
                               A. T. Wong, Z. Zhang.

 Total times  cpu:       11.4s     wall:       13.8s
