 argument  1 = /home/aditisingh4812/nw_chem/nwchem-run/nwchem-run/tddft/open/open_atom/geom-MOL/br.nw
                                         
                                         


             Northwest Computational Chemistry Package (NWChem) 7.2.3
             --------------------------------------------------------


                    Environmental Molecular Sciences Laboratory
                       Pacific Northwest National Laboratory
                                Richland, WA 99352

                              Copyright (c) 1994-2022
                       Pacific Northwest National Laboratory
                            Battelle Memorial Institute

             NWChem is an open-source computational chemistry package
                        distributed under the terms of the
                      Educational Community License (ECL) 2.0
             A copy of the license is included with this distribution
                              in the LICENSE.TXT file

                                  ACKNOWLEDGMENT
                                  --------------

            This software and its documentation were developed at the
            EMSL at Pacific Northwest National Laboratory, a multiprogram
            national laboratory, operated for the U.S. Department of Energy
            by Battelle under Contract Number DE-AC05-76RL01830. Support
            for this work was provided by the Department of Energy Office
            of Biological and Environmental Research, Office of Basic
            Energy Sciences, and the Office of Advanced Scientific Computing.


           Job information
           ---------------

    hostname        = p16
    program         = /home/aditisingh4812/nw_chem/nwchem-7.2.3-release.revision-d690e065-srconly.2024-08-27/nwchem-7.2.3/bin/LINUX64/nwchem
    date            = Tue Apr 15 00:06:00 2025

    compiled        = Mon_Apr_07_18:51:54_2025
    source          = /home/aditisingh4812/nw_chem/nwchem-7.2.3-release.revision-d690e065-srconly.2024-08-27/nwchem-7.2.3
    nwchem branch   = 7.2.3
    nwchem revision = d690e065
    ga revision     = 5.8.0
    use scalapack   = F
    input           = /home/aditisingh4812/nw_chem/nwchem-run/nwchem-run/tddft/open/open_atom/geom-MOL/br.nw
    prefix          = br.
    data base       = ./br.db
    status          = startup
    nproc           =        8
    time left       =     -1s



           Memory information
           ------------------

    heap     = 2621439998 doubles =  20000.0 Mbytes
    stack    = 2621439995 doubles =  20000.0 Mbytes
    global   = 6553600000 doubles =  50000.0 Mbytes (distinct from heap & stack)
    total    = ********** doubles =  90000.0 Mbytes
    verify   = yes
    hardfail = no 


           Directory information
           ---------------------

  0 permanent = .
  0 scratch   = .




                                NWChem Input Module
                                -------------------



 Scaling coordinates for geometry "geometry" by  1.889725989
 (inverse scale =  0.529177249)



                             Geometry "geometry" -> ""
                             -------------------------

 Output coordinates in angstroms (scale by  1.889725989 to convert to a.u.)

  No.       Tag          Charge          X              Y              Z
 ---- ---------------- ---------- -------------- -------------- --------------
    1 Br                  35.0000     0.00000000     0.00000000     0.00000000

      Atomic Mass 
      ----------- 

      Br                79.916500


 Effective nuclear repulsion energy (a.u.)       0.0000000000

            Nuclear Dipole moment (a.u.) 
            ----------------------------
        X                 Y               Z
 ---------------- ---------------- ----------------
     0.0000000000     0.0000000000     0.0000000000


            XYZ format geometry
            -------------------
     1
 geometry
 Br                    0.00000000     0.00000000     0.00000000



 Summary of "ao basis" -> "" (cartesian)
 ------------------------------------------------------------------------------
       Tag                 Description            Shells   Functions and Types
 ---------------- ------------------------------  ------  ---------------------
 *                        aug-cc-pVTZ                 on all atoms 


  pbe96 is a nonlocal functional; adding pw91lda local functional. 

                                 NWChem DFT Module
                                 -----------------


                      Basis "ao basis" -> "ao basis" (cartesian)
                      -----
  Br (Bromine)
  ------------
            Exponent  Coefficients 
       -------------- ---------------------------------------------------------
  1 S  1.06390000E+07  0.000006
  1 S  1.59340000E+06  0.000046
  1 S  3.62610000E+05  0.000242
  1 S  1.02700000E+05  0.001023
  1 S  3.35010000E+04  0.003711
  1 S  1.20930000E+04  0.011979
  1 S  4.71590000E+03  0.034693
  1 S  1.95560000E+03  0.089124
  1 S  8.52610000E+02  0.193456
  1 S  3.87670000E+02  0.320902
  1 S  1.82680000E+02  0.329923
  1 S  8.82450000E+01  0.149412
  1 S  3.92630000E+01  0.014994
  1 S  1.92340000E+01 -0.000917
  1 S  9.40570000E+00  0.000438
  1 S  4.16010000E+00 -0.000240
  1 S  1.89950000E+00  0.000074
  1 S  3.01140000E-01  0.000024

  2 S  1.06390000E+07 -0.000002
  2 S  1.59340000E+06 -0.000015
  2 S  3.62610000E+05 -0.000076
  2 S  1.02700000E+05 -0.000321
  2 S  3.35010000E+04 -0.001171
  2 S  1.20930000E+04 -0.003797
  2 S  4.71590000E+03 -0.011231
  2 S  1.95560000E+03 -0.029928
  2 S  8.52610000E+02 -0.071271
  2 S  3.87670000E+02 -0.140314
  2 S  1.82680000E+02 -0.203076
  2 S  8.82450000E+01 -0.096099
  2 S  3.92630000E+01  0.355809
  2 S  1.92340000E+01  0.592179
  2 S  9.40570000E+00  0.221598
  2 S  4.16010000E+00  0.013765
  2 S  1.89950000E+00  0.000840
  2 S  3.01140000E-01 -0.000009

  3 S  1.06390000E+07  0.000001
  3 S  1.59340000E+06  0.000006
  3 S  3.62610000E+05  0.000030
  3 S  1.02700000E+05  0.000128
  3 S  3.35010000E+04  0.000466
  3 S  1.20930000E+04  0.001510
  3 S  4.71590000E+03  0.004485
  3 S  1.95560000E+03  0.011984
  3 S  8.52610000E+02  0.028957
  3 S  3.87670000E+02  0.058157
  3 S  1.82680000E+02  0.088813
  3 S  8.82450000E+01  0.044524
  3 S  3.92630000E+01 -0.206039
  3 S  1.92340000E+01 -0.512702
  3 S  9.40570000E+00 -0.150935
  3 S  4.16010000E+00  0.678920
  3 S  1.89950000E+00  0.581770
  3 S  3.01140000E-01 -0.011183

  4 S  1.06390000E+07 -0.000000
  4 S  1.59340000E+06 -0.000002
  4 S  3.62610000E+05 -0.000009
  4 S  1.02700000E+05 -0.000039
  4 S  3.35010000E+04 -0.000143
  4 S  1.20930000E+04 -0.000463
  4 S  4.71590000E+03 -0.001375
  4 S  1.95560000E+03 -0.003678
  4 S  8.52610000E+02 -0.008898
  4 S  3.87670000E+02 -0.017953
  4 S  1.82680000E+02 -0.027573
  4 S  8.82450000E+01 -0.014095
  4 S  3.92630000E+01  0.067256
  4 S  1.92340000E+01  0.176693
  4 S  9.40570000E+00  0.052886
  4 S  4.16010000E+00 -0.307596
  4 S  1.89950000E+00 -0.470066
  4 S  3.01140000E-01  0.698034

  5 S  6.04720000E-01  1.000000

  6 S  1.25150000E-01  1.000000

  7 S  4.55930000E-02  1.000000

  8 P  8.67650000E+03  0.000436
  8 P  2.05590000E+03  0.003782
  8 P  6.66230000E+02  0.020478
  8 P  2.53100000E+02  0.079283
  8 P  1.06120000E+02  0.217847
  8 P  4.72420000E+01  0.387859
  8 P  2.18250000E+01  0.359435
  8 P  9.96840000E+00  0.112200
  8 P  4.51710000E+00  0.004387
  8 P  1.99820000E+00  0.001781
  8 P  2.81450000E-01  0.000212

  9 P  8.67650000E+03 -0.000175
  9 P  2.05590000E+03 -0.001526
  9 P  6.66230000E+02 -0.008340
  9 P  2.53100000E+02 -0.033220
  9 P  1.06120000E+02 -0.095418
  9 P  4.72420000E+01 -0.182403
  9 P  2.18250000E+01 -0.155831
  9 P  9.96840000E+00  0.186790
  9 P  4.51710000E+00  0.542773
  9 P  1.99820000E+00  0.387331
  9 P  2.81450000E-01 -0.004378

 10 P  8.67650000E+03  0.000045
 10 P  2.05590000E+03  0.000396
 10 P  6.66230000E+02  0.002156
 10 P  2.53100000E+02  0.008672
 10 P  1.06120000E+02  0.024868
 10 P  4.72420000E+01  0.048547
 10 P  2.18250000E+01  0.039616
 10 P  9.96840000E+00 -0.060575
 10 P  4.51710000E+00 -0.187170
 10 P  1.99820000E+00 -0.137776
 10 P  2.81450000E-01  0.576090

 11 P  7.09880000E-01  1.000000

 12 P  1.02040000E-01  1.000000

 13 P  3.51420000E-02  1.000000

 14 D  4.03830000E+02  0.001473
 14 D  1.21170000E+02  0.012673
 14 D  4.63450000E+01  0.058045
 14 D  1.97210000E+01  0.170510
 14 D  8.86240000E+00  0.318596
 14 D  3.99620000E+00  0.384502
 14 D  1.76360000E+00  0.273774

 15 D  7.06190000E-01  1.000000

 16 D  2.63900000E-01  1.000000

 17 D  1.04700000E-01  1.000000

 18 F  5.51500000E-01  1.000000

 19 F  2.58000000E-01  1.000000



 Summary of "ao basis" -> "ao basis" (cartesian)
 ------------------------------------------------------------------------------
       Tag                 Description            Shells   Functions and Types
 ---------------- ------------------------------  ------  ---------------------
 Br                       aug-cc-pVTZ               19       69   7s6p4d2f




 Summary of "ao basis" -> "ao basis" (cartesian)
 ------------------------------------------------------------------------------
       Tag                 Description            Shells   Functions and Types
 ---------------- ------------------------------  ------  ---------------------
 Br                       aug-cc-pVTZ               19       69   7s6p4d2f




                         Geometry "geometry" -> "geometry"
                         ---------------------------------

 Output coordinates in angstroms (scale by  1.889725989 to convert to a.u.)

  No.       Tag          Charge          X              Y              Z
 ---- ---------------- ---------- -------------- -------------- --------------
    1 Br                  35.0000     0.00000000     0.00000000     0.00000000

      Atomic Mass 
      ----------- 

      Br                79.916500


 Effective nuclear repulsion energy (a.u.)       0.0000000000

            Nuclear Dipole moment (a.u.) 
            ----------------------------
        X                 Y               Z
 ---------------- ---------------- ----------------
     0.0000000000     0.0000000000     0.0000000000


                      Basis "ao basis" -> "ao basis" (cartesian)
                      -----
  Br (Bromine)
  ------------
            Exponent  Coefficients 
       -------------- ---------------------------------------------------------
  1 S  1.06390000E+07  0.783316
  1 S  1.59340000E+06  1.473513
  1 S  3.62610000E+05  2.550724
  1 S  1.02700000E+05  4.181125
  1 S  3.35010000E+04  6.549813
  1 S  1.20930000E+04  9.844927
  1 S  4.71590000E+03 14.070874
  1 S  1.95560000E+03 18.679434
  1 S  8.52610000E+02 21.754738
  1 S  3.87670000E+02 19.981517
  1 S  1.82680000E+02 11.683979
  1 S  8.82450000E+01  3.065934
  1 S  3.92630000E+01  0.167613
  1 S  1.92340000E+01 -0.005999
  1 S  9.40570000E+00  0.001677
  1 S  4.16010000E+00 -0.000498
  1 S  1.89950000E+00  0.000085
  1 S  3.01140000E-01  0.000007

  2 S  1.06390000E+07 -0.252252
  2 S  1.59340000E+06 -0.463465
  2 S  3.62610000E+05 -0.801438
  2 S  1.02700000E+05 -1.312466
  2 S  3.35010000E+04 -2.066419
  2 S  1.20930000E+04 -3.120496
  2 S  4.71590000E+03 -4.554971
  2 S  1.95560000E+03 -6.272471
  2 S  8.52610000E+02 -8.014539
  2 S  3.87670000E+02 -8.736786
  2 S  1.82680000E+02 -7.191721
  2 S  8.82450000E+01 -1.971921
  2 S  3.92630000E+01  3.977492
  2 S  1.92340000E+01  3.876240
  2 S  9.40570000E+00  0.848231
  2 S  4.16010000E+00  0.028576
  2 S  1.89950000E+00  0.000968
  2 S  3.01140000E-01 -0.000002

  3 S  1.06390000E+07  0.096079
  3 S  1.59340000E+06  0.188354
  3 S  3.62610000E+05  0.329897
  3 S  1.02700000E+05  0.538945
  3 S  3.35010000E+04  0.850046
  3 S  1.20930000E+04  1.282682
  3 S  4.71590000E+03  1.880666
  3 S  1.95560000E+03  2.596571
  3 S  8.52610000E+02  3.366467
  3 S  3.87670000E+02  3.743710
  3 S  1.82680000E+02  3.251642
  3 S  8.82450000E+01  0.944544
  3 S  3.92630000E+01 -2.381184
  3 S  1.92340000E+01 -3.469552
  3 S  9.40570000E+00 -0.597296
  3 S  4.16010000E+00  1.457146
  3 S  1.89950000E+00  0.693565
  3 S  3.01140000E-01 -0.003349

  4 S  1.06390000E+07 -0.040774
  4 S  1.59340000E+06 -0.088348
  4 S  3.62610000E+05 -0.150399
  4 S  1.02700000E+05 -0.245492
  4 S  3.35010000E+04 -0.386993
  4 S  1.20930000E+04 -0.584085
  4 S  4.71590000E+03 -0.856363
  4 S  1.95560000E+03 -1.183861
  4 S  8.52610000E+02 -1.536533
  4 S  3.87670000E+02 -1.716576
  4 S  1.82680000E+02 -1.499468
  4 S  8.82450000E+01 -0.444144
  4 S  3.92630000E+01  1.154519
  4 S  1.92340000E+01  1.776041
  4 S  9.40570000E+00  0.310861
  4 S  4.16010000E+00 -0.980595
  4 S  1.89950000E+00 -0.832377
  4 S  3.01140000E-01  0.310552

  5 S  6.04720000E-01  0.488738

  6 S  1.25150000E-01  0.149963

  7 S  4.55930000E-02  0.070321

  8 P  8.67650000E+03 52.005081
  8 P  2.05590000E+03 74.618084
  8 P  6.66230000E+02 98.798310
  8 P  2.53100000E+02114.084055
  8 P  1.06120000E+02105.761167
  8 P  4.72420000E+01 68.471708
  8 P  2.18250000E+01 24.167998
  8 P  9.96840000E+00  2.832698
  8 P  4.51710000E+00  0.041182
  8 P  1.99820000E+00  0.006031
  8 P  2.81450000E-01  0.000062

  9 P  8.67650000E+03-21.384395
  9 P  2.05590000E+03-30.868620
  9 P  6.66230000E+02-41.239738
  9 P  2.53100000E+02-48.994075
  9 P  1.06120000E+02-47.479014
  9 P  4.72420000E+01-33.003971
  9 P  2.18250000E+01-10.739176
  9 P  9.96840000E+00  4.833481
  9 P  4.51710000E+00  5.221772
  9 P  1.99820000E+00  1.344329
  9 P  2.81450000E-01 -0.001311

 10 P  8.67650000E+03  9.038447
 10 P  2.05590000E+03 13.133265
 10 P  6.66230000E+02 17.460828
 10 P  2.53100000E+02 20.951785
 10 P  1.06120000E+02 20.270945
 10 P  4.72420000E+01 14.390011
 10 P  2.18250000E+01  4.472451
 10 P  9.96840000E+00 -2.567799
 10 P  4.51710000E+00 -2.949832
 10 P  1.99820000E+00 -0.783354
 10 P  2.81450000E-01  0.282636

 11 P  7.09880000E-01  0.928798

 12 P  1.02040000E-01  0.082206

 13 P  3.51420000E-02  0.021688

 14 D  4.03830000E+02 90.859556
 14 D  1.21170000E+02 95.074736
 14 D  4.63450000E+01 81.008763
 14 D  1.97210000E+01 53.350395
 14 D  8.86240000E+00 24.587609
 14 D  3.99620000E+00  7.362799
 14 D  1.76360000E+00  1.252718

 15 D  7.06190000E-01  0.895411

 16 D  2.63900000E-01  0.159929

 17 D  1.04700000E-01  0.031719

 18 F  5.51500000E-01  0.385862

 19 F  2.58000000E-01  0.069839



    Basis function labels
    ---------------------
       No.  Atm El Type
       ---  --- -- ----
        1    1 Br s          
        2    1 Br s          
        3    1 Br s          
        4    1 Br s          
        5    1 Br s          
        6    1 Br s          
        7    1 Br s          
        8    1 Br px         
        9    1 Br py         
       10    1 Br pz         
       11    1 Br px         
       12    1 Br py         
       13    1 Br pz         
       14    1 Br px         
       15    1 Br py         
       16    1 Br pz         
       17    1 Br px         
       18    1 Br py         
       19    1 Br pz         
       20    1 Br px         
       21    1 Br py         
       22    1 Br pz         
       23    1 Br px         
       24    1 Br py         
       25    1 Br pz         
       26    1 Br dxx        
       27    1 Br dxy        
       28    1 Br dxz        
       29    1 Br dyy        
       30    1 Br dyz        
       31    1 Br dzz        
       32    1 Br dxx        
       33    1 Br dxy        
       34    1 Br dxz        
       35    1 Br dyy        
       36    1 Br dyz        
       37    1 Br dzz        
       38    1 Br dxx        
       39    1 Br dxy        
       40    1 Br dxz        
       41    1 Br dyy        
       42    1 Br dyz        
       43    1 Br dzz        
       44    1 Br dxx        
       45    1 Br dxy        
       46    1 Br dxz        
       47    1 Br dyy        
       48    1 Br dyz        
       49    1 Br dzz        
       50    1 Br fxxx       
       51    1 Br fxxy       
       52    1 Br fxxz       
       53    1 Br fxyy       
       54    1 Br fxyz       
       55    1 Br fxzz       
       56    1 Br fyyy       
       57    1 Br fyyz       
       58    1 Br fyzz       
       59    1 Br fzzz       
       60    1 Br fxxx       
       61    1 Br fxxy       
       62    1 Br fxxz       
       63    1 Br fxyy       
       64    1 Br fxyz       
       65    1 Br fxzz       
       66    1 Br fyyy       
       67    1 Br fyyz       
       68    1 Br fyzz       
       69    1 Br fzzz       
  int_init: cando_txs set to always be  F

 Schwarz integral screening summary 
 ---------------------------------- 

        No. of atom pairs =       1
       No. of shell pairs =     190

 Atomic screening 

   value      no.     value      no.     value      no.     value      no.   
  -------- ------    -------- ------    -------- ------    -------- ------   
  0.00D+00      0    1.00D-13      0    1.00D-12      0    1.00D-11      0
  1.00D-10      0    1.00D-09      0    1.00D-08      0    1.00D-07      0
  1.00D-06      0    1.00D-05      0    1.00D-04      0    1.00D-03      0
  1.00D-02      0    1.00D-01      0    1.00D+00      0    1.00D+01      1


 Shell screening 

   value      no.     value      no.     value      no.     value      no.   
  -------- ------    -------- ------    -------- ------    -------- ------   
  0.00D+00      0    1.00D-13      0    1.00D-12      0    1.00D-11      0
  1.00D-10      0    1.00D-09      0    1.00D-08      0    1.00D-07      0
  1.00D-06      0    1.00D-05      2    1.00D-04      3    1.00D-03      8
  1.00D-02     14    1.00D-01     66    1.00D+00     95    1.00D+01      2


  Caching 1-el integrals 
  atom                     1  - neighbor  & S                     1   10.000000000000000       exp AB    3.5142000000000027E-002   3.5142000000000027E-002
 zmins =     0.035142000    0.035142000 lprod =   2 range =        18.70 acc   0.10D-07
 sh     0.000000000
  Center:                     1  Radial Pts. & Wghts. 
    1        0.000001140           4.4396200E-18
    2        0.000009117           1.1365465E-15
    3        0.000030769           2.9128710E-14
    4        0.000072933           2.9096372E-13
    5        0.000142449           1.7343296E-12
    6        0.000246154           7.4576251E-12
    7        0.000390889           2.5597721E-11
    8        0.000583496           7.4502707E-11
    9        0.000830820           1.9117777E-10
   10        0.001139708           4.4417462E-10
   11        0.001517011           9.5227883E-10
   12        0.001969587           1.9105362E-09
   13        0.002504297           3.6253487E-09
   14        0.003128012           6.5605637E-09
   15        0.003847609           1.1396680E-08
   16        0.004669976           1.9105497E-08
   17        0.005602011           3.1042741E-08
   18        0.006650627           4.9061433E-08
   19        0.007822749           7.5648974E-08
   20        0.009125318           1.1409118E-07
   21        0.010565296           1.6866672E-07
   22        0.012149660           2.4487577E-07
   23        0.013885413           3.4970673E-07
   24        0.015779581           4.9194562E-07
   25        0.017839216           6.8253244E-07
   26        0.020071398           9.3496975E-07
   27        0.022483241           1.2657887E-06
   28        0.025081891           1.6950784E-06
   29        0.027874531           2.2470841E-06
   30        0.030868384           2.9508823E-06
   31        0.034070716           3.8411383E-06
   32        0.037488839           4.9589544E-06
   33        0.041130114           6.3528177E-06
   34        0.045001953           8.0796552E-06
   35        0.049111827           1.0206007E-05
   36        0.053467265           1.2809326E-05
   37        0.058075861           1.5979417E-05
   38        0.062945276           1.9820031E-05
   39        0.068083243           2.4450612E-05
   40        0.073497572           3.0008235E-05
   41        0.079196153           3.6649729E-05
   42        0.085186964           4.4554012E-05
   43        0.091478071           5.3924654E-05
   44        0.098077637           6.4992685E-05
   45        0.104993927           7.8019672E-05
   46        0.112235312           9.3301088E-05
   47        0.119810274           1.1117000E-04
   48        0.127727417           1.3200108E-04
   49        0.135995466           1.5621503E-04
   50        0.144623282           1.8428335E-04
   51        0.153619859           2.1673364E-04
   52        0.162994342           2.5415524E-04
   53        0.172756025           2.9720554E-04
   54        0.182914364           3.4661676E-04
   55        0.193478985           4.0320337E-04
   56        0.204459688           4.6787019E-04
   57        0.215866464           5.4162121E-04
   58        0.227709495           6.2556921E-04
   59        0.239999171           7.2094626E-04
   60        0.252746096           8.2911515E-04
   61        0.265961101           9.5158184E-04
   62        0.279655253           1.0900091E-03
   63        0.293839869           1.2462313E-03
   64        0.308526526           1.4222707E-03
   65        0.323727076           1.6203550E-03
   66        0.339453658           1.8429367E-03
   67        0.355718711           2.0927141E-03
   68        0.372534992           2.3726546E-03
   69        0.389915592           2.6860193E-03
   70        0.407873947           3.0363910E-03
   71        0.426423862           3.4277044E-03
   72        0.445579525           3.8642784E-03
   73        0.465355527           4.3508526E-03
   74        0.485766887           4.8926271E-03
   75        0.506829064           5.4953051E-03
   76        0.528557991           6.1651410E-03
   77        0.550970090           6.9089923E-03
   78        0.574082302           7.7343770E-03
   79        0.597912114           8.6495365E-03
   80        0.622477586           9.6635050E-03
   81        0.647797381           1.0786185E-02
   82        0.673890802           1.2028434E-02
   83        0.700777818           1.3402151E-02
   84        0.728479108           1.4920387E-02
   85        0.757016097           1.6597451E-02
   86        0.786410995           1.8449037E-02
   87        0.816686845           2.0492364E-02
   88        0.847867569           2.2746325E-02
   89        0.879978016           2.5231660E-02
   90        0.913044017           2.7971142E-02
   91        0.947092443           3.0989786E-02
   92        0.982151269           3.4315081E-02
   93        1.018249632           3.7977252E-02
   94        1.055417913           4.2009542E-02
   95        1.093687803           4.6448540E-02
   96        1.133092391           5.1334537E-02
   97        1.173666252           5.6711932E-02
   98        1.215445539           6.2629677E-02
   99        1.258468087           6.9141792E-02
  100        1.302773528           7.6307925E-02
  101        1.348403404           8.4193999E-02
  102        1.395401305           9.2872929E-02
  103        1.443813004           1.0242544E-01
  104        1.493686615           1.1294099E-01
  105        1.545072758           1.2451882E-01
  106        1.598024743           1.3726911E-01
  107        1.652598765           1.5131438E-01
  108        1.708854128           1.6679096E-01
  109        1.766853478           1.8385082E-01
  110        1.826663066           2.0266352E-01
  111        1.888353034           2.2341852E-01
  112        1.951997735           2.4632785E-01
  113        2.017676078           2.7162915E-01
  114        2.085471911           2.9958916E-01
  115        2.155474456           3.3050784E-01
  116        2.227778774           3.6472308E-01
  117        2.302486297           4.0261621E-01
  118        2.379705414           4.4461845E-01
  119        2.459552126           4.9121842E-01
  120        2.542150784           5.4297103E-01
  121        2.627634913           6.0050792E-01
  122        2.716148145           6.6454981E-01
  123        2.807845269           7.3592118E-01
  124        2.902893424           8.1556781E-01
  125        3.001473452           9.0457769E-01
  126        3.103781450           1.0042063E+00
  127        3.210030534           1.1159070E+00
  128        3.320452877           1.2413681E+00
  129        3.435302055           1.3825578E+00
  130        3.554855770           1.5417796E+00
  131        3.679419016           1.7217410E+00
  132        3.809327780           1.9256375E+00
  133        3.944953400           2.1572592E+00
  134        4.086707709           2.4211240E+00
  135        4.235049152           2.7226464E+00
  136        4.390490105           3.0683540E+00
  137        4.553605686           3.4661656E+00
  138        4.725044444           3.9257539E+00
  139        4.905541426           4.4590214E+00
  140        5.095934285           5.0807335E+00
  141        5.297183317           5.8093691E+00
  142        5.510396652           6.6682790E+00
  143        5.736862247           7.6872867E+00
  144        5.978089050           8.9049339E+00
  145        6.235860643           1.0371688E+01
  146        6.512306231           1.2154607E+01
  147        6.809996152           1.4344288E+01
  148        7.132072853           1.7065443E+01
  149        7.482434387           2.0493490E+01
  150        7.865997956           2.4881394E+01
  151        8.289089404           3.0604742E+01
  152        8.760038644           3.8240840E+01
  153        9.290127241           4.8714922E+01
  154        9.895172091           6.3588207E+01
  155       10.598338163           8.5672295E+01
  156       11.435538967           1.2048056E+02
  157       12.466940092           1.8016108E+02
  158       13.805331446           2.9646368E+02
  159       15.703930678           5.7910117E+02
  160       18.970735248           1.7008887E+03
     irreducible set of Lebedev Angular points ;
  0.009523809523810  1.000000000000000  0.000000000000000  0.000000000000000
  0.032142857142857  0.577350269189626  0.577350269189626  0.577350269189626
  0.028571428571429  0.459700843380983  0.000000000000000  0.888073833977115
   total no. of   reducible points:  38; test:  1.00000000
  0.012698412698413  1.000000000000000  0.000000000000000  0.000000000000000
  0.022574955908289  0.707106781186547  0.707106781186547  0.000000000000000
  0.021093750000000  0.577350269189626  0.577350269189626  0.577350269189626
  0.020173335537919  0.301511344577764  0.301511344577764  0.904534033733291
   total no. of   reducible points:  50; test:  1.00000000
  0.000513067179734  1.000000000000000  0.000000000000000  0.000000000000000
  0.016604069565742  0.707106781186547  0.707106781186547  0.000000000000000
 -0.029586038961039  0.577350269189626  0.577350269189626  0.577350269189626
  0.026576207082159  0.480384461415261  0.480384461415261  0.733799385705343
  0.016522170993716  0.320772648980776  0.000000000000000  0.947156221362588
   total no. of   reducible points:  74; test:  1.00000000
  0.011544011544012  1.000000000000000  0.000000000000000  0.000000000000000
  0.011943909085856  0.577350269189626  0.577350269189626  0.577350269189626
  0.011110555710603  0.369602846454150  0.369602846454150  0.852518311701268
  0.011876501294537  0.694354006602666  0.694354006602666  0.189063552885395
  0.011812303746904  0.374243039090341  0.000000000000000  0.927330657151172
   total no. of   reducible points:  86; test:  1.00000000
  0.003828270494937  1.000000000000000  0.000000000000000  0.000000000000000
  0.009793737512488  0.577350269189626  0.577350269189626  0.577350269189626
  0.008211737283191  0.185115635344736  0.185115635344736  0.965124035086594
  0.009942814891178  0.690421048382292  0.690421048382292  0.215957291845848
  0.009595471336071  0.395689473055942  0.395689473055942  0.828769981252592
  0.009694996361663  0.478369028812150  0.000000000000000  0.878158910604066
   total no. of   reducible points: 110; test:  1.00000000
  0.000599631368862  1.000000000000000  0.000000000000000  0.000000000000000
  0.007372999718621  0.707106781186547  0.707106781186547  0.000000000000000
  0.007210515360144  0.577350269189626  0.577350269189626  0.577350269189626
  0.007116355493118  0.676441040011426  0.676441040011426  0.291298882209527
  0.006753829486314  0.417496122796545  0.417496122796545  0.807089818359583
  0.007574394159054  0.157467667203908  0.157467667203908  0.974888643677173
  0.006991087353303  0.140355381171318  0.449332832326956  0.882270011260323
   total no. of   reducible points: 146; test:  1.00000000
  0.005544842902037  1.000000000000000  0.000000000000000  0.000000000000000
  0.006071332770671  0.707106781186547  0.707106781186547  0.000000000000000
  0.006383674773515  0.577350269189626  0.577350269189626  0.577350269189626
  0.005183387587748  0.255125262111413  0.255125262111413  0.932642590312691
  0.006317929009814  0.674360146036277  0.674360146036277  0.300793595137701
  0.006201670006589  0.431891069671941  0.431891069671941  0.791795559393492
  0.005477143385137  0.261393136033599  0.000000000000000  0.965232421976448
  0.005968383987681  0.499045316179604  0.144663074432512  0.854415804684659
   total no. of   reducible points: 170; test:  1.00000000
  0.001782340447245  1.000000000000000  0.000000000000000  0.000000000000000
  0.005716905949977  0.707106781186547  0.707106781186547  0.000000000000000
  0.005573383178849  0.577350269189626  0.577350269189626  0.577350269189626
  0.005608704082588  0.671297344269523  0.671297344269523  0.314196994182586
  0.005158237711805  0.289246562757544  0.289246562757544  0.912509096867474
  0.005518771467274  0.444693317871744  0.444693317871744  0.777493219314767
  0.004106777028169  0.129933544765007  0.129933544765007  0.982972302707253
  0.005051846064615  0.345770219761128  0.000000000000000  0.938319218137592
  0.005530248916233  0.159041710538353  0.836036015482459  0.525118572443642
   total no. of   reducible points: 194; test:  1.00000000
 -0.055226399197273  1.000000000000000  0.000000000000000  0.000000000000000
  0.004450274607445  0.577350269189626  0.577350269189626  0.577350269189626
  0.004496841067921  0.449204468739761  0.449204468739761  0.772289253148364
  0.005049153450479  0.252041949021020  0.252041949021020  0.934317778845812
  0.003976408018052  0.698190665844724  0.698190665844724  0.158302205463478
  0.004401400650381  0.658740524346096  0.658740524346096  0.363485684956727
  0.017245443505444  0.040385440500977  0.040385440500977  0.998367683967727
  0.004231083095357  0.582384230971558  0.000000000000000  0.812913653173365
  0.005198069864064  0.354587739051869  0.000000000000000  0.935022745880593
  0.004695720972569  0.227218180899819  0.486466153588665  0.843636521068894
   total no. of   reducible points: 230; test:  1.00000000
 -0.001313769127327  1.000000000000000  0.000000000000000  0.000000000000000
 -0.002522728704859  0.707106781186547  0.707106781186547  0.000000000000000
  0.004186853881701  0.577350269189626  0.577350269189626  0.577350269189626
  0.005315167977811  0.703937339158548  0.703937339158548  0.094575076403713
  0.004047142377086  0.101252624857241  0.101252624857241  0.989694807462905
  0.004112482394407  0.464744872642054  0.464744872642054  0.753673939250816
  0.003595584899759  0.327742065497163  0.327742065497163  0.886098344997499
  0.004256131351428  0.662033866369997  0.662033866369997  0.351315128564633
  0.004229582700647  0.850650808352040  0.000000000000000  0.525731112119134
  0.004080914225781  0.323348454269290  0.115311201100970  0.939227929749916
  0.004071467593831  0.231479015871260  0.524493924092236  0.819343388819120
   total no. of   reducible points: 266; test:  1.00000000
  0.000854591172513  1.000000000000000  0.000000000000000  0.000000000000000
  0.003599119285026  0.577350269189626  0.577350269189626  0.577350269189626
  0.003449788424306  0.351564034557011  0.351564034557011  0.867643624544083
  0.003604822601420  0.656632941021961  0.656632941021961  0.371034178384821
  0.003576729661743  0.472905413258100  0.472905413258100  0.743452042987556
  0.002352101413689  0.096183085226148  0.096183085226148  0.990705621379408
  0.003108953122414  0.221964523629418  0.221964523629418  0.949454317226443
  0.003650045807677  0.701176641608955  0.701176641608955  0.129238672710514
  0.002982344963172  0.264415288706066  0.000000000000000  0.964408914879206
  0.003600820932216  0.571895589187896  0.000000000000000  0.820326419827759
  0.003571540554273  0.251003475177047  0.800072749407395  0.544867737258077
  0.003392312205006  0.123354853258333  0.412772408316853  0.902442529533000
   total no. of   reducible points: 302; test:  1.00000000
  0.003006796749454  1.000000000000000  0.000000000000000  0.000000000000000
  0.003050627745651  0.577350269189626  0.577350269189626  0.577350269189626
  0.001621104600289  0.706896546391232  0.706896546391232  0.024383301669356
  0.003005701484902  0.479468262571203  0.479468262571203  0.734996850587746
  0.002990992529654  0.192753315487802  0.192753315487802  0.962129055136014
  0.002982170644108  0.693035796132712  0.693035796132712  0.198501311223365
  0.002721564237311  0.360830211552009  0.360830211552009  0.860001812127547
  0.003033513795811  0.649848616149617  0.649848616149617  0.394199888605839
  0.003007949555219  0.193294501323034  0.000000000000000  0.981140782843257
  0.002881964603055  0.380049491989930  0.000000000000000  0.924966152698679
  0.002958357626536  0.289955882549957  0.793453785658232  0.535123047718276
  0.003036020026407  0.096841214551040  0.828080150668686  0.552182074349399
  0.002832187403926  0.183343464704166  0.907465826530513  0.378009189874487
   total no. of   reducible points: 350; test:  1.00000000
  0.000526589796822  1.000000000000000  0.000000000000000  0.000000000000000
  0.002548219972003  0.707106781186547  0.707106781186547  0.000000000000000
  0.002512317418927  0.577350269189626  0.577350269189626  0.577350269189626
  0.002530403801186  0.690934630750911  0.690934630750911  0.212646824707552
  0.002014279020919  0.177483605460916  0.177483605460916  0.967987158791473
  0.002501725168403  0.491434263778475  0.491434263778475  0.719016501040843
  0.002513267174598  0.645666470742426  0.645666470742426  0.407712664897770
  0.002302694782227  0.286128901030764  0.286128901030764  0.914472801120872
  0.001462495621595  0.075680843671780  0.075680843671780  0.994255912631278
  0.002445373437313  0.392725976336800  0.392725976336800  0.831584400419232
  0.002417442375639  0.881813287779429  0.000000000000000  0.471598691151316
  0.001910951282180  0.977642811118265  0.000000000000000  0.210272522857307
  0.002416930044325  0.205482369640304  0.868946032287241  0.450233038258263
  0.002512236854563  0.590515704892527  0.799927854385729  0.106801826075805
  0.002496644054553  0.555015236107681  0.771746262691590  0.310428403516654
  0.002236607760438  0.937180985855372  0.334436314534346  0.099217696364292
   total no. of   reducible points: 434; test:  1.00000000
  0.000309512129531  1.000000000000000  0.000000000000000  0.000000000000000
  0.001852379698597  0.577350269189626  0.577350269189626  0.577350269189626
  0.001871790639278  0.704095493822747  0.704095493822747  0.092190407076898
  0.001858812585438  0.680774406645524  0.680774406645524  0.270356088359165
  0.001852028828296  0.637254693925875  0.637254693925875  0.433373868777154
  0.001846715956151  0.504441970780036  0.504441970780036  0.700768575373573
  0.001818471778163  0.421576178401097  0.421576178401097  0.802836877335274
  0.001749564657281  0.331792073647212  0.331792073647212  0.883078727934133
  0.001617210647254  0.238473670142189  0.238473670142189  0.941414158220403
  0.001384737234852  0.145903644915776  0.145903644915776  0.978480583762694
  0.000976433116505  0.060950341155072  0.060950341155072  0.996278129754016
  0.001857161196774  0.611684344200988  0.000000000000000  0.791101929626902
  0.001705153996396  0.396475534819986  0.000000000000000  0.918045287711454
  0.001300321685886  0.172478200990772  0.000000000000000  0.985013335028002
  0.001842866472905  0.561026380862206  0.351828092773352  0.749310611904116
  0.001802658934377  0.474239284255198  0.263471665593795  0.840047488359050
  0.001849830560444  0.598412649788538  0.181664084036021  0.780320742479920
  0.001713904507107  0.379103540769556  0.172079522565688  0.909213475092374
  0.001555213603397  0.277867319058624  0.082130215819325  0.957102074310073
  0.001802239128009  0.503356427107512  0.089992058420749  0.859379855890721
   total no. of   reducible points: 590; test:  1.00000000
  0.000219294208818  1.000000000000000  0.000000000000000  0.000000000000000
  0.001436433617319  0.707106781186547  0.707106781186547  0.000000000000000
  0.001421940344336  0.577350269189626  0.577350269189626  0.577350269189626
  0.000679812351105  0.050872044105024  0.050872044105024  0.997408677652823
  0.000991318423529  0.122819879017883  0.122819879017883  0.984799753572301
  0.001180207833239  0.202689081440879  0.202689081440879  0.958036675983391
  0.001296599602081  0.284774515646429  0.284774515646429  0.915317950483155
  0.001365871427428  0.365671907897803  0.365671907897803  0.855901928697887
  0.001402988604775  0.442826488671347  0.442826488671347  0.779621319527635
  0.001418645563596  0.514061962724974  0.514061962724974  0.686644447264154
  0.001421376741852  0.630640121916680  0.630640121916680  0.452311920313658
  0.001423996475491  0.671688333202261  0.671688333202261  0.312521305001653
  0.001431554042179  0.697979268533688  0.697979268533688  0.160155803498829
  0.000925440149987  0.144686567419531  0.000000000000000  0.989477537495599
  0.001250239995054  0.339026347541122  0.000000000000000  0.940776878793759
  0.001394365843329  0.533580465126351  0.000000000000000  0.845749305193653
  0.001127089094672  0.069440243933494  0.235518789424233  0.969385863498432
  0.001345753760911  0.226900410952946  0.410218247404573  0.883310360522113
  0.001424957283317  0.080255746077753  0.621430241748161  0.779348105702661
  0.001261523341238  0.146799952789657  0.324528434571739  0.934414827052402
  0.001392547106053  0.157150776982473  0.522448218969663  0.838064133458312
  0.001418761677878  0.236570299315725  0.601754663408956  0.762840624604670
  0.001338366684480  0.077148158667657  0.434657551614116  0.897285336132833
  0.001393700862676  0.306293666621073  0.490882658903762  0.815609223203975
  0.001415914757467  0.382247737952479  0.564876814909950  0.731300793659766
   total no. of   reducible points: 770; test:  1.00000000
  0.000143829419053  1.000000000000000  0.000000000000000  0.000000000000000
  0.001125772288287  0.577350269189626  0.577350269189626  0.577350269189626
  0.000494802934195  0.042929635453413  0.042929635453413  0.998155345023847
  0.000735799010913  0.105142685408640  0.105142685408640  0.988883224354686
  0.000888913277130  0.175002486762309  0.175002486762309  0.968890220434707
  0.000988834783892  0.247765337965026  0.247765337965026  0.936602730407163
  0.001053299681709  0.320656712395596  0.320656712395596  0.891267942647606
  0.001092778807015  0.391652074984998  0.391652074984998  0.832596723702352
  0.001114389394063  0.459082587418762  0.459082587418762  0.760582905315251
  0.001123724788052  0.521456388841586  0.521456388841586  0.675400969108414
  0.001125239325244  0.625317024465420  0.625317024465420  0.466858905695743
  0.001126153271816  0.663792674452317  0.663792674452317  0.344613654237438
  0.001130286931124  0.691041039849830  0.691041039849830  0.211954151850184
  0.001134986534364  0.705290700745776  0.705290700745776  0.071624401449956
  0.000682336792711  0.123668676265799  0.000000000000000  0.992323565431490
  0.000945415816045  0.294077711446839  0.000000000000000  0.955781512496548
  0.001074429975386  0.469775384920765  0.000000000000000  0.882785980701182
  0.001129300086569  0.633456324113957  0.000000000000000  0.773778447257375
  0.000843688450090  0.059740486141813  0.202912875277752  0.977372722845310
  0.001075255720449  0.137576040847364  0.460262194248405  0.877058461865803
  0.001108577236864  0.339101652633629  0.503067399966204  0.794942299964208
  0.000956647532378  0.127167519143982  0.281760642244213  0.951020169374390
  0.001080663250717  0.269312074041351  0.433156129172016  0.860143461601762
  0.001126797131196  0.141978645260192  0.625616735858081  0.767102186220558
  0.001022568715358  0.067092846007383  0.379839521685916  0.922616110730809
  0.001108960267713  0.070577381832562  0.551750542142352  0.831017552413474
  0.001122790653436  0.278388847788215  0.602961915615919  0.747620610834086
  0.001032401847117  0.197957893891741  0.358960632958910  0.912118378409121
  0.001107249382284  0.208730706110327  0.534866643813548  0.818748536281022
  0.001121780048520  0.405512213787284  0.567499754607437  0.716591845467024
   total no. of   reducible points: 974; test:  1.00000000
  0.000110518923327  1.000000000000000  0.000000000000000  0.000000000000000
  0.000920523273809  0.707106781186547  0.707106781186547  0.000000000000000
  0.000913315978644  0.577350269189626  0.577350269189626  0.577350269189626
  0.000369042189802  0.037126364496571  0.037126364496571  0.998620681799919
  0.000560399092868  0.091400604122622  0.091400604122622  0.991610739722014
  0.000686529762928  0.153107785246991  0.153107785246991  0.976276606394685
  0.000772033855115  0.218092889166061  0.218092889166061  0.951247067480579
  0.000830154595889  0.283987453220018  0.283987453220018  0.915806886208668
  0.000868669255018  0.349117760096376  0.349117760096376  0.869616915181954
  0.000892707628585  0.412143146144431  0.412143146144431  0.812573722299916
  0.000906082023857  0.471899362714913  0.471899362714913  0.744729469632107
  0.000911977725494  0.527314545284234  0.527314545284234  0.666242253736104
  0.000912872013860  0.620947533244402  0.620947533244402  0.478380938076952
  0.000913071493569  0.656972271185729  0.656972271185729  0.369830866459426
  0.000915287378455  0.684178830907014  0.684178830907014  0.252583955700718
  0.000918743627432  0.701260433012363  0.701260433012363  0.128326186659723
  0.000517697731297  0.107238221547817  0.000000000000000  0.994233354821322
  0.000733114368210  0.258206895949697  0.000000000000000  0.966089643296119
  0.000846323283638  0.417275295530672  0.000000000000000  0.908780131681911
  0.000903112269425  0.570036691179250  0.000000000000000  0.821619237061433
  0.000648577845316  0.982798601826395  0.177177402261533  0.052106394770113
  0.000743503091098  0.962424923032623  0.247571646342629  0.111564095715648
  0.000799852789184  0.940200799412881  0.335461628906649  0.059058888532354
  0.000810173149747  0.932082204014320  0.317361524661198  0.174655167757863
  0.000848338957459  0.904367419939330  0.409026842708536  0.121723505109599
  0.000855629925731  0.891240756007475  0.385429115066922  0.239027847938172
  0.000880320867974  0.867643562846271  0.493222118485128  0.062662506241542
  0.000881104818243  0.858197998604162  0.478532067592243  0.185750519454734
  0.000885028234127  0.839675362404986  0.450742259315706  0.302946697352898
  0.000902134229904  0.816528856402219  0.563212302076210  0.126777480068428
  0.000901009167711  0.801546937078353  0.543430356969390  0.249411216236224
  0.000902269293843  0.777356306907035  0.512351848641987  0.364983226059765
  0.000915801617469  0.766162121390039  0.639427963474910  0.064245492242208
  0.000913157800319  0.755358414353351  0.626980550902439  0.190601822277923
  0.000910781357948  0.734430575755950  0.603116169309631  0.311227594714961
  0.000910576025897  0.704383718402177  0.569370249846844  0.423864478152234
   total no. of   reducible points:1202; test:  1.00000000
  0.000077771607433  1.000000000000000  0.000000000000000  0.000000000000000
  0.000755764641300  0.577350269189626  0.577350269189626  0.577350269189626
  0.000284163380609  0.032292906634139  0.032292906634139  0.998956623864238
  0.000437441912705  0.080367332714622  0.080367332714622  0.993520097262594
  0.000541717474087  0.135428996053165  0.135428996053165  0.981487633165117
  0.000614800089136  0.193896386111443  0.193896386111443  0.961669580940275
  0.000666439448580  0.253734371501127  0.253734371501127  0.933401166400522
  0.000702503935692  0.313525143475257  0.313525143475257  0.896328047546008
  0.000726851178925  0.372155833937534  0.372155833937534  0.850294108254619
  0.000742263753421  0.428680957519570  0.428680957519570  0.795276853253136
  0.000750954503584  0.482251012828299  0.482251012828299  0.731346649169981
  0.000754853505772  0.532067933356626  0.532067933356626  0.658640591360127
  0.000755408896977  0.617299819539427  0.617299819539427  0.487731345715221
  0.000755314717444  0.651067984912748  0.651067984912748  0.390155043595885
  0.000756476765329  0.677731525168736  0.677731525168736  0.285236672931301
  0.000758799180852  0.696310941064874  0.696310941064874  0.174075117999957
  0.000760826183203  0.705893500983175  0.705893500983175  0.058555363028785
  0.000402168044787  0.995554619409186  0.000000000000000  0.094185985013862
  0.000580487179395  0.973411590179421  0.000000000000000  0.229063039585986
  0.000679215195595  0.927569373238863  0.000000000000000  0.373650983980055
  0.000733674121129  0.856802242279510  0.000000000000000  0.515645147000147
  0.000758186630099  0.762349555371937  0.000000000000000  0.647165477620840
  0.000753825785980  0.570752290889222  0.438702803988950  0.694104943230444
  0.000748351724705  0.519646338840308  0.385890841476262  0.762270254565011
  0.000737176366111  0.464633753121535  0.330193737234385  0.821637128756598
  0.000718344889576  0.406390169755769  0.272542357356378  0.872105322408083
  0.000689581552982  0.345632946664309  0.213951023749525  0.913653558859526
  0.000648010580179  0.283139512105033  0.155592230978665  0.946373644151191
  0.000589755889659  0.219768202292533  0.098928789796861  0.970523071240677
  0.000509570884925  0.156469609865035  0.045986429106755  0.986611630545015
  0.000753690642891  0.602735667372129  0.337662514017343  0.722975616397235
  0.000747250596558  0.549603232025510  0.282230130972799  0.786309379645309
  0.000734301713228  0.492170775523457  0.224863234259254  0.840954489612314
  0.000713087158218  0.430942299859848  0.166622472345648  0.886862833757808
  0.000681702203211  0.366410818231367  0.108696490182217  0.924082347686118
  0.000638094114560  0.299018905775844  0.052519897841201  0.952800794667682
  0.000755038137792  0.626872401314500  0.229752365755002  0.744476220506856
  0.000747864664014  0.570732414483461  0.172308060709380  0.802853936449496
  0.000733591872060  0.509636090196037  0.114023846539051  0.852801042441985
  0.000711012052766  0.443872993831246  0.056115220958825  0.894330949550573
  0.000757136397869  0.641997847108239  0.116417442314087  0.757816431224233
  0.000748990832908  0.581721806180261  0.057975895314452  0.811319009870262
   total no. of   reducible points:1454; test:  1.00000000
  qrot: 

              1        2        3      
    1    1.0000   0.0000   0.0000
    2    0.0000   1.0000   0.0000
    3    0.0000   0.0000   1.0000
  me                     0   done genpts
  me                     1   done genpts
  me                     2   done genpts
  me                     3   done genpts
  me                     4   done genpts
  me                     5   done genpts
  me                     7   done genpts
  me                     6   done genpts
  me                     0   done uprt
  me                     1   done uprt
  me                     2   done uprt
  me                     3   done uprt
  me                     4   done uprt
  me                     5   done uprt
  me                     6   done uprt
  me                     7   done uprt
  me                     0  done mem
  me                     1  done mem
  me                     2  done mem
  me                     3  done mem
  me                     4  done mem
  me                     5  done mem
  me                     6  done mem
  me                     7  done mem
  dftinpanae: itol2e                     8  iaoacc                    14  tol_rho    1.0000000000000000E-010

            General Information
            -------------------
          SCF calculation type: DFT
          Wavefunction type:  spin polarized.
          No. of atoms     :     1
          No. of electrons :    35
           Alpha electrons :    18
            Beta electrons :    17
          Charge           :     0
          Spin multiplicity:     2
          Use of symmetry is: off; symmetry adaption is: off
          Maximum number of iterations:  50
          AO basis - number of functions:    69
                     number of shells:    19
          Convergence on energy requested:  1.00D-06
          Convergence on density requested:  1.00D-05
          Convergence on gradient requested:  5.00D-04

              XC Information
              --------------
                     Hartree-Fock (Exact) Exchange  1.000          
                     LC-wPBE(h)Exchange Functional  1.000          
            Perdew 1991 LDA Correlation Functional  1.000 local    
           PerdewBurkeErnz. Correlation Functional  1.000 non-local

           Range-Separation Parameters        
           ---------------------------
           Alpha           :  0.00
           Beta            :  1.00
           Gamma           :  0.28
           Short-Range HF  :     F

             Grid Information
             ----------------
          Grid used for XC integration:  xfine     
          Radial quadrature: Mura-Knowles        
          Angular quadrature: Lebedev. 
          Tag              B.-S. Rad. Rad. Pts. Rad. Cut. Ang. Pts.
          ---              ---------- --------- --------- ---------
          Br                  1.15      160          10.0      1454
          Grid pruning is: on 
          Number of quadrature shells:   160
          Spatial weights used:  Erf1

          Convergence Information
          -----------------------
          Convergence aids based upon iterative change in 
          total energy or number of iterations. 
          Levelshifting, if invoked, occurs when the 
          HOMO/LUMO gap drops below (HL_TOL):  1.00D-02
          DIIS, if invoked, will attempt to extrapolate 
          using up to (NFOCK): 10 stored Fock matrices.

                    Damping( 0%)  Levelshifting(0.5)       DIIS
                  --------------- ------------------- ---------------
          dE  on:    start            ASAP                start   
          dE off:    2 iters         50 iters            50 iters 


      Screening Tolerance Information
      -------------------------------
          Density screening/tol_rho:  1.00D-10
          AO Gaussian exp screening on grid/accAOfunc:  14
          CD Gaussian exp screening on grid/accCDfunc:  20
          XC Gaussian exp screening on grid/accXCfunc:  20
          Schwarz screening/accCoul:  1.00D-08



                         Geometry "geometry" -> "geometry"
                         ---------------------------------

 Output coordinates in angstroms (scale by  1.889725989 to convert to a.u.)

  No.       Tag          Charge          X              Y              Z
 ---- ---------------- ---------- -------------- -------------- --------------
    1 Br                  35.0000     0.00000000     0.00000000     0.00000000

      Atomic Mass 
      ----------- 

      Br                79.916500


 Effective nuclear repulsion energy (a.u.)       0.0000000000

            Nuclear Dipole moment (a.u.) 
            ----------------------------
        X                 Y               Z
 ---------------- ---------------- ----------------
     0.0000000000     0.0000000000     0.0000000000

  
  CAM type calculations without CDFIT are
  only available with the direct option.
  Forcing Direct SCF
  


     <<<<<<    Before call to DFT_SCF.    >>>>>>
     <<<<<< date:  Apr 15  time: 00:06:01 >>>>>>


 Setting tolerance for linear dependence to 1.00D-05




 Setting tolerance for linear dependence to 1.00D-05

 Setting tolerance for linear dependence to 1.00D-05

 Setting tolerance for linear dependence to 1.00D-05

 Setting tolerance for linear dependence to 1.00D-05
 Setting tolerance for linear dependence to 1.00D-05
 Setting tolerance for linear dependence to 1.00D-05
 Setting tolerance for linear dependence to 1.00D-05
  lindep tolerance =    1.0000000000000001E-005
  lindep tolerance =    1.0000000000000001E-005
  lindep tolerance =    1.0000000000000001E-005
  lindep tolerance =    1.0000000000000001E-005
  lindep tolerance =    1.0000000000000001E-005
  lindep tolerance =    1.0000000000000001E-005
  lindep tolerance =    1.0000000000000001E-005
  lindep tolerance =    1.0000000000000001E-005


     <<<<<<    Before 3c-2e initialize.   >>>>>>
     <<<<<< date:  Apr 15  time: 00:06:01 >>>>>>


 Setting fock-build task_bf   :      -1
                    maxquartet:   10000
                    maxeri    :  129600
                    maxscr    :       0
                    intacc    : 0.0D+00
                    denscreen : T
                    dentol    : 1.0D-06


      Superposition of Atomic Density Guess
      -------------------------------------

 Sum of atomic energies:       -2572.44605052

      Non-variational initial energy
      ------------------------------

 Total energy =   -2572.267084
 1-e energy   =   -3581.986905
 2-e energy   =    1009.719821
 HOMO         =      -0.388322
 LUMO         =       0.065733


 Setting fock-build task_bf   :      -1
                    maxquartet:   10000
                    maxeri    :  129600
                    maxscr    :       0
                    intacc    : 0.0D+00
                    denscreen : T
                    dentol    : 1.0D-06


 Wrote molecular orbitals to ./br.movecs

  WARNING: movecs_in_org=atomic not equal to movecs_in=./br.movecs
   Time after variat. SCF:      7.1

 Setting fock-build task_bf   :      -1
                    maxquartet:   10000
                    maxeri    :  129600
                    maxscr    :       0
                    intacc    : 0.0D+00
                    denscreen : T
                    dentol    : 1.0D-06

   Time prior to 1st pass:      7.1


     <<<<<<      Before SCF iter loop.    >>>>>>
     <<<<<< date:  Apr 15  time: 00:06:07 >>>>>>

           DAMPING=T LEVELSHIFTING=F DIISING=T
          itol2e= 8 iAOacc=12 iXCacc=20


     <<<<<<            calling 1-e int    >>>>>>
     <<<<<< date:  Apr 15  time: 00:06:07 >>>>>>

    Kinetic Matrix Time:          0.0s

           Kinetic energy =   2572.055107786791

    Potential Matrix Time:          0.0s


     <<<<<<    Before call to GETVXC.     >>>>>>
     <<<<<< date:  Apr 15  time: 00:06:07 >>>>>>



     <<<<<<    Before call to fock_2e.    >>>>>>
     <<<<<< date:  Apr 15  time: 00:06:07 >>>>>>



     <<<<<<     After call to fock_2e.    >>>>>>
     <<<<<< date:  Apr 15  time: 00:06:09 >>>>>>

    Fock_2e Build Time:          1.8s
  *** grid_quadv0:                    calc_type:                    1
  *** grid_quadv0:                    grid_written: F
  *** grid_quadv0:                    calc_type:                    1
  *** grid_quadv0:                    grid_written: F
  *** grid_quadv0:                    grad: T
  *** grid_quadv0:                    kske: F
  *** grid_quadv0:                    kslap: F
  *** grid_quadv0:                    do_scf: T
  *** grid_quadv0:                    calc_type:                    1
  *** grid_quadv0:                    grid_written: F
  *** grid_quadv0:                    grad: T
  *** grid_quadv0:                    kske: F
  *** grid_quadv0:                    calc_type:                    1
  *** grid_quadv0:                    grid_written: F
  *** grid_quadv0:                    grad: T
  *** grid_quadv0:                    kske: F
  *** grid_quadv0:                    kslap: F
  *** grid_quadv0:                    do_scf: T
  *** grid_quadv0:                    fde_option:                    0
  *** grid_quadv0:                    n_per_rec:                 3070
  *** grid_quadv0:                    calc_type:                    1
  *** grid_quadv0:                    grid_written: F
  *** grid_quadv0:                    grad: T
  *** grid_quadv0:                    kske: F
  *** grid_quadv0:                    kslap: F
  *** grid_quadv0:                    do_scf: T
  *** grid_quadv0:                    fde_option:                    0
  *** grid_quadv0:                    n_per_rec:                 3070
  *** grid_quadv0:                    calc_type:                    1
  *** grid_quadv0:                    grid_written: F
  *** grid_quadv0:                    grad: T
  *** grid_quadv0:                    kske: F
  *** grid_quadv0:                    kslap: F
  *** grid_quadv0:                    do_scf: T
  *** grid_quadv0:                    fde_option:                    0
  *** grid_quadv0:                    n_per_rec:                 3070
  *** grid_quadv0:                    grad: T
  *** grid_quadv0:                    kske: F
  *** grid_quadv0:                    kslap: F
  *** grid_quadv0:                    do_scf: T
  *** grid_quadv0:                    fde_option:                    0
  *** grid_quadv0:                    n_per_rec:                 3070
  *** grid_quadv0:                    fde_option:                    0
  *** grid_quadv0:                    n_per_rec:                 3070
  *** grid_quadv0:                    kslap: F
  *** grid_quadv0:                    do_scf: T
  *** grid_quadv0:                    fde_option:                    0
  *** grid_quadv0:                    n_per_rec:                 3070
  *** grid_quadv0:                    calc_type:                    1
  *** grid_quadv0:                    grid_written: F
  *** grid_quadv0:                    grad: T
  *** grid_quadv0:                    kske: F
  *** grid_quadv0:                    kslap: F
  *** grid_quadv0:                    do_scf: T
  *** grid_quadv0:                    fde_option:                    0
  *** grid_quadv0:                    n_per_rec:                 3070
  *** grid_quadv0:                    calc_type:                    1
  *** grid_quadv0:                    grid_written: F
  *** grid_quadv0:                    grad: T
  *** grid_quadv0:                    kske: F
  *** grid_quadv0:                    kslap: F
  *** grid_quadv0:                    do_scf: T
  *** grid_quadv0:                    fde_option:                    0
  *** grid_quadv0:                    n_per_rec:                 3070
   0: nuse=   8 avail= 12500000Mb on .
   1: nuse=   8 avail= 12500000Mb on .
   2: nuse=   8 avail= 12500000Mb on .
   3: nuse=   8 avail= 12500000Mb on .
   4: nuse=   8 avail= 12500000Mb on .
   5: nuse=   8 avail= 12500000Mb on .
   6: nuse=   8 avail= 12500000Mb on .
   7: nuse=   8 avail= 12500000Mb on .
 l_cube input   11.00

  atom type   l_cube   no. cubes   segmts   rad   sub
 ----------- -------- ----------- -------- ----- -----
        1     12.67        34         3      19     8

 Grid_pts file          = ./br.gridpts.0
 Record size in doubles =  12289        No. of grid_pts per rec  =   3070
 Max. records in memory =     12        Max. recs in file   = 126656358

 me   0 NQTOTC NQ/cube   22517    1324
 me   1 NQTOTC NQ/cube   13160    4386
 me   2 NQTOTC NQ/cube   11526    3842
 me   3 NQTOTC NQ/cube   11134    2783
 me   4 NQTOTC NQ/cube   11209   11209
 me   5 NQTOTC NQ/cube   10443    5221
 me   6 NQTOTC NQ/cube   10630    5315
 me   7 NQTOTC NQ/cube    9757    4878

 XC quadr. integrated density :      35.000000 npts:   100276 nctrs:        1

    Fock_xc Build Time:          0.2s


     <<<<<<    Before call to GETVCOUL.   >>>>>>
     <<<<<< date:  Apr 15  time: 00:06:09 >>>>>>



     <<<<<<    End of parallel region.    >>>>>>
     <<<<<< date:  Apr 15  time: 00:06:09 >>>>>>

    Total Fock Matrix Build Time:          2.1s
 Etnew, Ecore, Ecoul, Exc(1), Exc(2), Totsic:   -2573.7885913909413       -3580.9608395395262        1098.1332890911256       -90.961040942540308        0.0000000000000000        0.0000000000000000     
  delta =   -2573.7885913909413     
  delta =   -2573.7885913909413     
  delta =   -2573.7885913909413     
  delta =   -2573.7885913909413     


         Total DFT energy =    -2573.788591390941
      One electron energy =    -3580.960839539526
           Coulomb energy =     1098.133289091126
    Exchange-Corr. energy =      -90.961040942540
 Nuclear repulsion energy =        0.000000000000

 Numeric. integr. density =       34.999999999573

  delta =   -2573.7885913909413     
  delta =   -2573.7885913909413     
  delta =   -2573.7885913909413     
  delta =   -2573.7885913909413     
     Total iterative time =      9.7s




     <<<<<<        calling diis driver    >>>>>>
     <<<<<< date:  Apr 15  time: 00:06:09 >>>>>>

 nhist                     1  pulay matrix 
   0.0000E+00
  -1.0000E+00   9.4837E-01


     <<<<<<         called diis driver    >>>>>>
     <<<<<< date:  Apr 15  time: 00:06:09 >>>>>>


 global array: fock transf[1:69,1:69],  handle: -940 

            1           2           3           4           5           6  
       ----------- ----------- ----------- ----------- ----------- -----------
   1       6.61701    -0.00000     0.00000     0.00000    -7.59893     3.47835
   2      -0.00000     3.53646    -0.00578    -0.00523     0.00000    -0.00000
   3       0.00000    -0.00578     3.55580    -0.00144    -0.00000     0.00000
   4       0.00000    -0.00523    -0.00144     3.55609    -0.00000     0.00000
   5      -7.59893     0.00000    -0.00000    -0.00000    32.33497   -35.08814
   6       3.47835    -0.00000     0.00000     0.00000   -35.08814    49.44305
   7       0.00000     0.74718     0.10074    -0.76620    -0.00000    -0.00000
   8      -0.00000    -0.09903     1.07070     0.04722     0.00000     0.00000
   9       0.00000     0.75725     0.03304     0.75413    -0.00000    -0.00000
  10       0.25117    -0.00000     0.00000     0.00000     0.08656    -1.26300
  11       0.00000    -0.00005     0.00134     0.00096     0.00000    -0.00000
  12       0.22810    -0.00000     0.00000     0.00000     0.13909    -0.40994
  13       0.00000    -0.00022    -0.00135     0.00034     0.00000     0.00000
  14       0.00000     0.00020    -0.00302     0.00103    -0.00000     0.00000
  15       0.00000    -0.00139    -0.00059    -0.00330    -0.00000    -0.00000
  16       0.00080     0.00000     0.00000    -0.00000    -0.00099    -0.00073
  17      -0.00149     0.00000     0.00000    -0.00000     0.00185     0.00136
  18      -0.00013    -0.00000    -0.00000    -0.00000     0.00016     0.00012
  19       0.00000     0.00500    -0.01432    -0.10364    -0.00000    -0.00000
  20       0.00000    -0.09113    -0.03586    -0.00124    -0.00000     0.00000
  21       0.00000     0.03447    -0.09748     0.01524    -0.00000    -0.00000
  22       0.00173     0.00000    -0.00000    -0.00000    -0.00215    -0.00159
  23      -0.00335     0.00000     0.00000     0.00000     0.00416     0.00306
  24      -0.00000     0.46489     0.16095     0.09979     0.00000     0.00000
  25       0.00000    -0.07246    -0.09402     0.49424    -0.00000    -0.00000
  26       0.00000     0.17540    -0.47283    -0.06397    -0.00000    -0.00000
  27      -0.00000     0.00001     0.00040     0.00029    -0.00000    -0.00000
  28       0.00022    -0.00000     0.00000     0.00000    -0.00018    -0.00014
  29      -0.00036     0.00000     0.00000    -0.00000     0.00029     0.00023
  30      -0.00043    -0.00000     0.00000     0.00000     0.00034     0.00027
  31      -0.00000     0.00003     0.00093    -0.00011     0.00000    -0.00000
  32       0.00000    -0.00008     0.00026    -0.00036     0.00000     0.00000
  33       0.00000    -0.00041    -0.00013    -0.00095    -0.00000    -0.00000
  34      -0.00000     0.01857     0.08433    -0.01961     0.00000     0.00000
  35      -0.00000     0.01502     0.01579     0.08602     0.00000     0.00000
  36       0.00000     0.08152    -0.02379    -0.01199    -0.00000    -0.00000
  37       0.09751    -0.00000     0.00000     0.00000    -0.07746    -0.41250
  38      -0.00010     0.00000    -0.00000     0.00000     0.00008     0.00008
  39      -0.00027     0.00000    -0.00000     0.00000     0.00021     0.00021
  40      -0.00021    -0.00000     0.00000     0.00000     0.00017     0.00017
  41      -0.00021     0.00000    -0.00000    -0.00000     0.00017     0.00013
  42      -0.00133     0.00000     0.00000    -0.00000     0.00106     0.00083
  43      -0.00000     0.00750     0.00261    -0.00556     0.00000    -0.00000
  44       0.00000    -0.00325    -0.00026    -0.00908    -0.00000     0.00000
  45      -0.00000    -0.00328     0.01030     0.00078    -0.00000     0.00000
  46       0.00013    -0.00000    -0.00000     0.00000    -0.00013    -0.00006
  47       0.00005     0.00000    -0.00000     0.00000    -0.00005    -0.00002
  48       0.00002    -0.00000     0.00000     0.00000    -0.00002    -0.00001
  49      -0.00073     0.00000    -0.00000     0.00000     0.00058     0.00059
  50       0.00029     0.00000     0.00000    -0.00000    -0.00023    -0.00024
  51       0.10472     0.00000     0.00000     0.00000    -0.39464     0.29159
  52      -0.00000     0.01688    -0.01418    -0.00331     0.00000     0.00000
  53       0.00000     0.01425     0.01709    -0.00004    -0.00000     0.00000
  54       0.00000     0.00251    -0.00211     0.02206    -0.00000    -0.00000
  55      -0.00378     0.00000     0.00000     0.00000    -0.21692     0.40908
  56       0.00000    -0.02696     0.00219    -0.04695    -0.00000     0.00000
  57      -0.00000    -0.01537     0.05277     0.01115     0.00000     0.00000
  58       0.00000    -0.04207    -0.01811     0.02818    -0.00000     0.00000
  59       0.00017    -0.00000    -0.00000     0.00000    -0.00017    -0.00008
  60       0.00028     0.00000    -0.00000     0.00000    -0.00028    -0.00013
  61      -0.00000    -0.06864    -0.01495     0.01579     0.00000    -0.00000
  62       0.00000     0.02142    -0.04049     0.05611    -0.00000     0.00000
  63       0.00000     0.00304    -0.05820    -0.04304     0.00000     0.00000
  64       0.05011    -0.00000    -0.00000    -0.00000     0.17102    -0.32213
  65      -0.12761    -0.00000    -0.00000    -0.00000     0.69709    -0.76748
  66      -0.00000    -0.00732     0.03803     0.00283     0.00000    -0.00000
  67      -0.00000    -0.01513    -0.00006    -0.03500    -0.00000     0.00000
  68       0.00000    -0.03317    -0.00727     0.01637     0.00000    -0.00000
  69      -0.06778    -0.00000    -0.00000    -0.00000     0.20783    -0.17616

            7           8           9          10          11          12  
       ----------- ----------- ----------- ----------- ----------- -----------
   1       0.00000    -0.00000     0.00000     0.25117     0.00000     0.22810
   2       0.74718    -0.09903     0.75725    -0.00000    -0.00005    -0.00000
   3       0.10074     1.07070     0.03304     0.00000     0.00134     0.00000
   4      -0.76620     0.04722     0.75413     0.00000     0.00096     0.00000
   5      -0.00000     0.00000    -0.00000     0.08656     0.00000     0.13909
   6      -0.00000     0.00000    -0.00000    -1.26300    -0.00000    -0.40994
   7       1.78287    -0.00171    -0.00576     0.00000    -0.00163    -0.00000
   8      -0.00171     1.78412    -0.00302     0.00000     0.00377     0.00000
   9      -0.00576    -0.00302     1.77339     0.00000     0.00187     0.00000
  10       0.00000     0.00000     0.00000     2.05784     0.00000     1.89325
  11      -0.00163     0.00377     0.00187     0.00000     1.78084     0.00000
  12      -0.00000     0.00000     0.00000     1.89325     0.00000     2.73341
  13       0.00054    -0.00230    -0.00078     0.00000    -0.00002     0.00000
  14      -0.00205    -0.00809     0.00231     0.00000    -0.00005    -0.00000
  15       0.00487    -0.00217    -0.00696     0.00000    -0.00007     0.00000
  16       0.00000    -0.00000     0.00000     0.00113     0.00000    -0.00050
  17       0.00000    -0.00000    -0.00000    -0.00212    -0.00000     0.00094
  18       0.00000     0.00000     0.00000    -0.00018    -0.00000     0.00008
  19      -0.32931     0.08193     0.29611    -0.00000     0.00495     0.00000
  20       0.31110     0.11813     0.30883     0.00000     0.00188     0.00000
  21      -0.02315     0.42662    -0.14337    -0.00000     0.00486     0.00000
  22       0.00000    -0.00000     0.00000     0.00247     0.00000    -0.00110
  23      -0.00000    -0.00000     0.00000    -0.00476    -0.00000     0.00212
  24       0.51581     0.23434     0.77677     0.00000    -0.00061    -0.00000
  25      -0.78671    -0.12472     0.55964     0.00000    -0.00073    -0.00000
  26       0.23606    -0.93636     0.12334    -0.00000     0.00144    -0.00000
  27      -0.00051     0.00123     0.00063     0.00000     0.47544     0.00000
  28      -0.00000    -0.00000    -0.00000     0.00072    -0.00000     0.00124
  29       0.00000    -0.00000     0.00000    -0.00117     0.00000    -0.00200
  30      -0.00000     0.00000     0.00000    -0.00139    -0.00000    -0.00238
  31       0.00035     0.00276    -0.00025    -0.00000    -0.00005    -0.00000
  32       0.00036     0.00045    -0.00054     0.00000    -0.00000     0.00000
  33       0.00160    -0.00039    -0.00241     0.00000     0.00005     0.00000
  34       0.03249     0.07453     0.00208     0.00000    -0.00046    -0.00000
  35      -0.04520     0.01649     0.06535    -0.00000    -0.00051     0.00000
  36       0.05938    -0.02914     0.04542    -0.00000     0.00020     0.00000
  37       0.00000    -0.00000    -0.00000     0.30495    -0.00000    -0.21104
  38       0.00000     0.00000    -0.00000     0.00005     0.00000     0.00028
  39       0.00000    -0.00000     0.00000     0.00014    -0.00000     0.00074
  40      -0.00000    -0.00000    -0.00000     0.00011     0.00000     0.00060
  41      -0.00000    -0.00000     0.00000    -0.00067    -0.00000    -0.00116
  42      -0.00000     0.00000     0.00000    -0.00428     0.00000    -0.00735
  43       0.07342     0.01408     0.02220     0.00000    -0.00030    -0.00000
  44       0.02267    -0.00463    -0.07068     0.00000    -0.00286    -0.00000
  45      -0.01322     0.07376    -0.01028    -0.00000     0.00420    -0.00000
  46       0.00000    -0.00000    -0.00000    -0.00079     0.00000    -0.00166
  47       0.00000     0.00000     0.00000    -0.00030    -0.00000    -0.00063
  48      -0.00000    -0.00000     0.00000    -0.00012    -0.00000    -0.00024
  49      -0.00000    -0.00000     0.00000     0.00039     0.00000     0.00205
  50       0.00000     0.00000    -0.00000    -0.00016    -0.00000    -0.00082
  51       0.00000    -0.00000     0.00000    -0.82307     0.00000    -1.77064
  52      -0.01704     0.02065    -0.01242    -0.00000     0.00008     0.00000
  53      -0.01556    -0.02073    -0.01449    -0.00000    -0.00007     0.00000
  54       0.01843     0.00174    -0.02277     0.00000    -0.00006    -0.00000
  55       0.00000    -0.00000     0.00000    -0.82413    -0.00000    -1.52054
  56       0.02333     0.00434    -0.09451     0.00000    -0.00185    -0.00000
  57      -0.02487     0.09577    -0.00321    -0.00000     0.00359    -0.00000
  58      -0.09493    -0.02319    -0.02334    -0.00000     0.00016     0.00000
  59      -0.00000    -0.00000     0.00000    -0.00097    -0.00000    -0.00203
  60       0.00000    -0.00000     0.00000    -0.00163     0.00000    -0.00342
  61      -0.02749    -0.00325    -0.01836     0.00000    -0.00004    -0.00000
  62      -0.01047    -0.01539     0.02137     0.00000    -0.00003    -0.00000
  63       0.01044    -0.02317    -0.01165    -0.00000    -0.00349    -0.00000
  64      -0.00000     0.00000    -0.00000     0.39880    -0.00000     0.73633
  65      -0.00000     0.00000    -0.00000     0.59591    -0.00000     1.20905
  66      -0.00486     0.05110    -0.00291    -0.00000     0.00225    -0.00000
  67       0.01847    -0.00015    -0.04695    -0.00000    -0.00143     0.00000
  68      -0.04881    -0.00454    -0.01743     0.00000     0.00025     0.00000
  69      -0.00000     0.00000    -0.00000     0.06713     0.00000     0.20352

           13          14          15          16          17          18  
       ----------- ----------- ----------- ----------- ----------- -----------
   1       0.00000     0.00000     0.00000     0.00080    -0.00149    -0.00013
   2      -0.00022     0.00020    -0.00139     0.00000     0.00000    -0.00000
   3      -0.00135    -0.00302    -0.00059     0.00000     0.00000    -0.00000
   4       0.00034     0.00103    -0.00330    -0.00000    -0.00000    -0.00000
   5       0.00000    -0.00000    -0.00000    -0.00099     0.00185     0.00016
   6       0.00000     0.00000    -0.00000    -0.00073     0.00136     0.00012
   7       0.00054    -0.00205     0.00487     0.00000     0.00000     0.00000
   8      -0.00230    -0.00809    -0.00217    -0.00000    -0.00000     0.00000
   9      -0.00078     0.00231    -0.00696     0.00000    -0.00000     0.00000
  10       0.00000     0.00000     0.00000     0.00113    -0.00212    -0.00018
  11      -0.00002    -0.00005    -0.00007     0.00000    -0.00000    -0.00000
  12       0.00000    -0.00000     0.00000    -0.00050     0.00094     0.00008
  13       1.78278    -0.00577     0.00359    -0.00000    -0.00000     0.00000
  14      -0.00577     1.78223     0.00100     0.00000     0.00000    -0.00000
  15       0.00359     0.00100     1.77780     0.00000     0.00000    -0.00000
  16      -0.00000     0.00000     0.00000     1.55942     0.00356     0.00791
  17      -0.00000     0.00000     0.00000     0.00356     1.55483     0.00516
  18       0.00000    -0.00000    -0.00000     0.00791     0.00516     1.56823
  19      -0.00516     0.00224    -0.01294     0.00000     0.00000    -0.00000
  20       0.00056    -0.00245     0.00032    -0.00000    -0.00000     0.00000
  21      -0.00069    -0.01323    -0.00219     0.00000     0.00000    -0.00000
  22      -0.00000    -0.00000    -0.00000    -0.00422     0.00117     0.00270
  23      -0.00000     0.00000    -0.00000    -0.00115    -0.00219     0.00016
  24      -0.00019     0.00015    -0.00050    -0.00000    -0.00000     0.00000
  25       0.00224    -0.00137     0.00267     0.00000     0.00000     0.00000
  26      -0.00006    -0.00293    -0.00183    -0.00000    -0.00000     0.00000
  27       0.00002     0.00004     0.00006    -0.00000    -0.00000     0.00000
  28      -0.00000     0.00000     0.00000     0.05927    -0.15219    -0.52450
  29      -0.00000     0.00000     0.00000     0.20625     0.49130    -0.11653
  30       0.00000     0.00000     0.00000    -0.50285     0.18117    -0.11495
  31      -0.03487    -0.46577    -0.08980    -0.00000     0.00000    -0.00000
  32      -0.44818     0.00709     0.15763    -0.00000    -0.00000     0.00000
  33       0.15715    -0.09715     0.43796     0.00000     0.00000     0.00000
  34      -0.00220     0.00099    -0.00008    -0.00000     0.00000    -0.00000
  35       0.00220    -0.00016     0.00021    -0.00000     0.00000     0.00000
  36      -0.00074    -0.00088    -0.00304    -0.00000     0.00000    -0.00000
  37      -0.00000     0.00000    -0.00000     0.00408    -0.00764    -0.00067
  38      -0.00000     0.00000     0.00000    -0.23658    -0.00136    -0.23335
  39      -0.00000    -0.00000     0.00000     0.06102     0.31479    -0.05876
  40      -0.00000     0.00000     0.00000    -0.21863     0.08542     0.22739
  41      -0.00000     0.00000    -0.00000    -0.00126    -0.00011     0.00070
  42       0.00000     0.00000    -0.00000     0.00050    -0.00077    -0.00045
  43      -0.00113    -0.00338     0.00166     0.00000     0.00000     0.00000
  44       0.00045    -0.00249     0.01011     0.00000    -0.00000     0.00000
  45      -0.00310    -0.00885    -0.00184     0.00000    -0.00000    -0.00000
  46      -0.00000     0.00000     0.00000    -0.08452     0.07026     0.01414
  47       0.00000    -0.00000     0.00000     0.05778     0.07978    -0.05080
  48       0.00000     0.00000    -0.00000     0.04205     0.03118     0.09705
  49      -0.00000     0.00000    -0.00000     0.00089    -0.00084    -0.00071
  50       0.00000     0.00000    -0.00000     0.00133     0.00032    -0.00069
  51       0.00000    -0.00000     0.00000     0.00001    -0.00002    -0.00000
  52      -0.00005    -0.00014     0.00004     0.00000    -0.00000    -0.00000
  53       0.00011     0.00016     0.00012     0.00000    -0.00000     0.00000
  54      -0.00006    -0.00010     0.00026     0.00000    -0.00000     0.00000
  55       0.00000    -0.00000     0.00000    -0.00020     0.00038     0.00003
  56      -0.00094    -0.00258     0.00910    -0.00000    -0.00000     0.00000
  57      -0.00305    -0.00657    -0.00179     0.00000    -0.00000     0.00000
  58       0.00253     0.00346    -0.00032    -0.00000    -0.00000     0.00000
  59       0.00000    -0.00000     0.00000     0.00011    -0.00001    -0.00005
  60      -0.00000     0.00000    -0.00000    -0.00004    -0.00002     0.00006
  61       0.00134     0.00145     0.00177     0.00000     0.00000    -0.00000
  62       0.00230     0.00540    -0.00574    -0.00000    -0.00000     0.00000
  63       0.00184     0.00385     0.00502     0.00000    -0.00000    -0.00000
  64      -0.00000     0.00000    -0.00000     0.00192    -0.00359    -0.00031
  65      -0.00000     0.00000    -0.00000    -0.00096     0.00180     0.00016
  66      -0.00226    -0.00472    -0.00079    -0.00000     0.00000     0.00000
  67      -0.00061    -0.00158     0.00618     0.00000     0.00000    -0.00000
  68       0.00132     0.00147     0.00049     0.00000     0.00000    -0.00000
  69      -0.00000     0.00000    -0.00000    -0.00020     0.00038     0.00003

           19          20          21          22          23          24  
       ----------- ----------- ----------- ----------- ----------- -----------
   1       0.00000     0.00000     0.00000     0.00173    -0.00335    -0.00000
   2       0.00500    -0.09113     0.03447     0.00000     0.00000     0.46489
   3      -0.01432    -0.03586    -0.09748    -0.00000     0.00000     0.16095
   4      -0.10364    -0.00124     0.01524    -0.00000     0.00000     0.09979
   5      -0.00000    -0.00000    -0.00000    -0.00215     0.00416     0.00000
   6      -0.00000     0.00000    -0.00000    -0.00159     0.00306     0.00000
   7      -0.32931     0.31110    -0.02315     0.00000    -0.00000     0.51581
   8       0.08193     0.11813     0.42662    -0.00000    -0.00000     0.23434
   9       0.29611     0.30883    -0.14337     0.00000     0.00000     0.77677
  10      -0.00000     0.00000    -0.00000     0.00247    -0.00476     0.00000
  11       0.00495     0.00188     0.00486     0.00000    -0.00000    -0.00061
  12       0.00000     0.00000     0.00000    -0.00110     0.00212    -0.00000
  13      -0.00516     0.00056    -0.00069    -0.00000    -0.00000    -0.00019
  14       0.00224    -0.00245    -0.01323    -0.00000     0.00000     0.00015
  15      -0.01294     0.00032    -0.00219    -0.00000    -0.00000    -0.00050
  16       0.00000    -0.00000     0.00000    -0.00422    -0.00115    -0.00000
  17       0.00000    -0.00000     0.00000     0.00117    -0.00219    -0.00000
  18      -0.00000     0.00000    -0.00000     0.00270     0.00016     0.00000
  19       1.56836    -0.00003     0.00011     0.00000    -0.00000    -0.02178
[...]
  26      -0.00000    -0.96496   -15.97028
  27       0.00000    -0.00001     0.00000
  28      -0.00000     0.00007    -0.00000
  29      -0.00000    -0.96495   -15.97028
  30       0.00000    -0.00011     0.00001
  31      -0.00000    -0.96470   -15.97029
  32       0.00000   -13.23937    -4.09285
  33       0.00000     0.00009    -0.00000
  34       0.00000    -0.00044     0.00001
  35       0.00000   -13.23942    -4.09285
  36      -0.00000     0.00072    -0.00002
  37       0.00000   -13.24103    -4.09281
  38       0.00000   -18.53088    -1.11244
  39      -0.00000    -0.00010     0.00000
  40      -0.00000     0.00048    -0.00001
  41       0.00000   -18.53083    -1.11244
  42       0.00000    -0.00080     0.00001
  43       0.00000   -18.52905    -1.11247
  44       0.00000    -3.51568    -0.07094
  45       0.00000     0.00004    -0.00000
  46       0.00000    -0.00018     0.00000
  47       0.00000    -3.51570    -0.07094
  48      -0.00000     0.00030    -0.00000
  49       0.00000    -3.51638    -0.07093
  50       6.43590    -0.00000    -0.00000
  51     -11.82168     0.00000     0.00000
  52      -3.36373     0.00000    -0.00000
  53       6.43616    -0.00000    -0.00000
  54      -0.00171    -0.00000    -0.00000
  55       6.43756    -0.00000    -0.00000
  56     -11.82168     0.00000     0.00000
  57      -3.36273     0.00000    -0.00000
  58     -11.82467     0.00000     0.00000
  59      -3.36524     0.00000    -0.00000
  60       4.38551    -0.00000    -0.00000
  61      -8.05530     0.00000     0.00000
  62      -2.29283     0.00000    -0.00000
  63       4.38532    -0.00000    -0.00000
  64       0.00133     0.00000     0.00000
  65       4.38423    -0.00000    -0.00000
  66      -8.05531     0.00000     0.00000
  67      -2.29361     0.00000    -0.00000
  68      -8.05299     0.00000     0.00000
  69      -2.29166     0.00000    -0.00000
  int_init: cando_txs set to always be  F
                                NWChem TDDFT Module
                                -------------------


            General Information
            -------------------
           No. of orbitals :     138
            Alpha orbitals :      69
             Beta orbitals :      69
        Alpha frozen cores :       0
         Beta frozen cores :       0
     Alpha frozen virtuals :       0
      Beta frozen virtuals :       0
         Spin multiplicity :       2
    Number of AO functions :      69
        Use of symmetry is : off
      Symmetry adaption is : off
         Schwarz screening :  0.10D-07

              XC Information
              --------------
              Hartree-Fock (Exact) Exchange   1.00          
              LC-wPBE(h)Exchange Functional   1.00          
     Perdew 1991 LDA Correlation Functional   1.00 local    
    PerdewBurkeErnz. Correlation Functional   1.00 non-local
           Alpha           :  0.00
           Beta            :  1.00
           Gamma           :  0.28

             TDDFT Information
             -----------------
          Calculation type : TDDFT             
         Wavefunction type : Unrestricted
          No. of electrons :      35
           Alpha electrons :      18
            Beta electrons :      17
              No. of roots :       5
          Max subspacesize :    5000
            Max iterations :     100
               Target root :       1
           Target symmetry : none
      Symmetry restriction : off
                 Algorithm : Optimal
        Davidson threshold :  0.10D-03

            Memory Information
            ------------------
          Available GA space size is       52428790478 doubles
          Available MA space size is        4194422260 doubles
          Length of a trial vector is          918     884
          Algorithm : Incore multiple tensor contraction
          Estimated peak GA usage is          36857868 doubles
          Estimated peak MA usage is             18000 doubles

    5 smallest eigenvalue differences (eV) 
--------------------------------------------------------
  No. Spin  Occ  Vir  Irrep   E(Occ)    E(Vir)   E(Diff)
--------------------------------------------------------
    1    2   17   18 a        -0.402    -0.142     7.071
    2    2   16   18 a        -0.402    -0.142     7.071
    3    2   17   19 a        -0.402     0.061    12.585
    4    2   16   19 a        -0.402     0.061    12.585
    5    1   18   19 a        -0.415     0.058    12.881
--------------------------------------------------------

  Entering Davidson iterations
  Unrestricted

  Iter   NTrls   NConv    DeltaV     DeltaE      Time   
  ----  ------  ------  ---------  ---------  --------- 
    1      5       0     0.11E+00   0.10+100       10.3
    2     15       0     0.48E-01   0.77E-02       13.0
    3     25       0     0.16E-01   0.13E-02       13.0
    4     33       0     0.13E-01   0.69E-03       12.1
    5     41       0     0.45E-02   0.13E-03       12.2
    6     49       4     0.13E-02   0.14E-04       12.1
    7     51       4     0.25E-03   0.66E-06        8.7
    8     53       5     0.90E-04   0.37E-07        8.8
  ----  ------  ------  ---------  ---------  --------- 
  Convergence criterion met

  Ground state a       -2573.805697777653 a.u.
  <S2> =   0.7533

  ----------------------------------------------------------------------------
  Root   1         a              0.000116267 a.u.                0.0032 eV 
  <S2> =   0.7547
  ----------------------------------------------------------------------------
     Transition Moments    X  0.00000   Y -0.00000   Z -0.00000
     Transition Moments   XX  1.20222  XY -1.58108  XZ  4.44327
     Transition Moments   YY  1.94015  YZ -4.19332  ZZ -3.14237
     Dipole Oscillator Strength                    0.0000000000
     Electric Quadrupole                           0.0000000000
     Magnetic Dipole                               0.0000000000
     Total Oscillator Strength                     0.0000000000

     Occ.   15 alpha a   ---  Virt.   24 alpha a   -0.11788 X
     Occ.   15 alpha a   ---  Virt.   24 alpha a   -0.11786 Y
     Occ.   15 alpha a   ---  Virt.   25 alpha a    0.05258 X
     Occ.   15 alpha a   ---  Virt.   25 alpha a    0.05256 Y
     Occ.   15 alpha a   ---  Virt.   33 alpha a   -0.13355 X
     Occ.   15 alpha a   ---  Virt.   33 alpha a   -0.13352 Y
     Occ.   15 alpha a   ---  Virt.   34 alpha a    0.05979 X
     Occ.   15 alpha a   ---  Virt.   34 alpha a    0.05977 Y
     Occ.   16 alpha a   ---  Virt.   22 alpha a    0.06199 X
     Occ.   16 alpha a   ---  Virt.   22 alpha a    0.06196 Y
     Occ.   16 alpha a   ---  Virt.   31 alpha a    0.06276 X
     Occ.   16 alpha a   ---  Virt.   31 alpha a    0.06273 Y
     Occ.   16 alpha a   ---  Virt.   39 alpha a    0.10454 X
     Occ.   16 alpha a   ---  Virt.   39 alpha a    0.10451 Y
     Occ.   16 alpha a   ---  Virt.   56 alpha a    0.06646 X
     Occ.   16 alpha a   ---  Virt.   56 alpha a    0.06645 Y
     Occ.   17 alpha a   ---  Virt.   20 alpha a    0.05896 X
     Occ.   17 alpha a   ---  Virt.   20 alpha a    0.05892 Y
     Occ.   17 alpha a   ---  Virt.   29 alpha a    0.05937 X
     Occ.   17 alpha a   ---  Virt.   29 alpha a    0.05934 Y
     Occ.   17 alpha a   ---  Virt.   37 alpha a   -0.07197 X
     Occ.   17 alpha a   ---  Virt.   37 alpha a   -0.07195 Y
     Occ.   17 alpha a   ---  Virt.   40 alpha a    0.08378 X
     Occ.   17 alpha a   ---  Virt.   40 alpha a    0.08376 Y
     Occ.   17 alpha a   ---  Virt.   58 alpha a    0.05091 X
     Occ.   17 alpha a   ---  Virt.   58 alpha a    0.05090 Y
     Occ.   18 alpha a   ---  Virt.   41 alpha a    0.08378 X
     Occ.   18 alpha a   ---  Virt.   41 alpha a    0.08376 Y
     Occ.   18 alpha a   ---  Virt.   57 alpha a    0.05091 X
     Occ.   18 alpha a   ---  Virt.   57 alpha a    0.05090 Y
     Occ.   15 beta  a   ---  Virt.   25 beta  a    0.07184 X
     Occ.   15 beta  a   ---  Virt.   25 beta  a    0.07178 Y
     Occ.   15 beta  a   ---  Virt.   34 beta  a    0.05114 X
     Occ.   15 beta  a   ---  Virt.   34 beta  a    0.05112 Y
     Occ.   16 beta  a   ---  Virt.   18 beta  a    3.25374 X
     Occ.   16 beta  a   ---  Virt.   18 beta  a    3.12723 Y
     Occ.   16 beta  a   ---  Virt.   20 beta  a   -0.18471 X
     Occ.   16 beta  a   ---  Virt.   20 beta  a   -0.17794 Y
     Occ.   16 beta  a   ---  Virt.   29 beta  a   -0.10342 X
     Occ.   16 beta  a   ---  Virt.   29 beta  a   -0.09970 Y
     Occ.   17 beta  a   ---  Virt.   18 beta  a   -1.57308 X
     Occ.   17 beta  a   ---  Virt.   18 beta  a   -1.51192 Y
     Occ.   17 beta  a   ---  Virt.   20 beta  a    0.08930 X
     Occ.   17 beta  a   ---  Virt.   20 beta  a    0.08603 Y
     Occ.   17 beta  a   ---  Virt.   29 beta  a    0.05000 X
  ----------------------------------------------------------------------------
  Root   2         a              0.000116267 a.u.                0.0032 eV 
  <S2> =   0.7547
  ----------------------------------------------------------------------------
     Transition Moments    X  0.00000   Y  0.00000   Z  0.00000
     Transition Moments   XX  1.22142  XY -0.40233  XZ  4.77210
     Transition Moments   YY -2.01509  YZ  4.61979  ZZ  0.79367
     Dipole Oscillator Strength                    0.0000000000
     Electric Quadrupole                           0.0000000000
     Magnetic Dipole                               0.0000000000
     Total Oscillator Strength                     0.0000000000

     Occ.   15 alpha a   ---  Virt.   24 alpha a    0.05258 X
     Occ.   15 alpha a   ---  Virt.   24 alpha a    0.05256 Y
     Occ.   15 alpha a   ---  Virt.   25 alpha a    0.11788 X
     Occ.   15 alpha a   ---  Virt.   25 alpha a    0.11786 Y
     Occ.   15 alpha a   ---  Virt.   33 alpha a    0.05979 X
     Occ.   15 alpha a   ---  Virt.   33 alpha a    0.05977 Y
     Occ.   15 alpha a   ---  Virt.   34 alpha a    0.13355 X
     Occ.   15 alpha a   ---  Virt.   34 alpha a    0.13352 Y
     Occ.   16 alpha a   ---  Virt.   21 alpha a   -0.06199 X
     Occ.   16 alpha a   ---  Virt.   21 alpha a   -0.06196 Y
     Occ.   16 alpha a   ---  Virt.   30 alpha a   -0.06276 X
     Occ.   16 alpha a   ---  Virt.   30 alpha a   -0.06273 Y
     Occ.   16 alpha a   ---  Virt.   38 alpha a    0.10454 X
     Occ.   16 alpha a   ---  Virt.   38 alpha a    0.10451 Y
     Occ.   16 alpha a   ---  Virt.   55 alpha a    0.06646 X
     Occ.   16 alpha a   ---  Virt.   55 alpha a    0.06645 Y
     Occ.   17 alpha a   ---  Virt.   41 alpha a   -0.08378 X
     Occ.   17 alpha a   ---  Virt.   41 alpha a   -0.08376 Y
     Occ.   17 alpha a   ---  Virt.   57 alpha a   -0.05091 X
     Occ.   17 alpha a   ---  Virt.   57 alpha a   -0.05090 Y
     Occ.   18 alpha a   ---  Virt.   20 alpha a   -0.05896 X
     Occ.   18 alpha a   ---  Virt.   20 alpha a   -0.05892 Y
     Occ.   18 alpha a   ---  Virt.   29 alpha a   -0.05937 X
     Occ.   18 alpha a   ---  Virt.   29 alpha a   -0.05934 Y
     Occ.   18 alpha a   ---  Virt.   37 alpha a    0.07197 X
     Occ.   18 alpha a   ---  Virt.   37 alpha a    0.07195 Y
     Occ.   18 alpha a   ---  Virt.   40 alpha a    0.08378 X
     Occ.   18 alpha a   ---  Virt.   40 alpha a    0.08376 Y
     Occ.   18 alpha a   ---  Virt.   58 alpha a    0.05091 X
     Occ.   18 alpha a   ---  Virt.   58 alpha a    0.05090 Y
     Occ.   15 beta  a   ---  Virt.   26 beta  a   -0.07184 X
     Occ.   15 beta  a   ---  Virt.   26 beta  a   -0.07178 Y
     Occ.   15 beta  a   ---  Virt.   35 beta  a   -0.05114 X
     Occ.   15 beta  a   ---  Virt.   35 beta  a   -0.05112 Y
     Occ.   16 beta  a   ---  Virt.   18 beta  a   -1.57308 X
     Occ.   16 beta  a   ---  Virt.   18 beta  a   -1.51192 Y
     Occ.   16 beta  a   ---  Virt.   20 beta  a    0.08930 X
     Occ.   16 beta  a   ---  Virt.   20 beta  a    0.08603 Y
     Occ.   16 beta  a   ---  Virt.   29 beta  a    0.05000 X
     Occ.   17 beta  a   ---  Virt.   18 beta  a   -3.25373 X
     Occ.   17 beta  a   ---  Virt.   18 beta  a   -3.12722 Y
     Occ.   17 beta  a   ---  Virt.   20 beta  a    0.18471 X
     Occ.   17 beta  a   ---  Virt.   20 beta  a    0.17794 Y
     Occ.   17 beta  a   ---  Virt.   29 beta  a    0.10342 X
     Occ.   17 beta  a   ---  Virt.   29 beta  a    0.09970 Y
  ----------------------------------------------------------------------------
  Root   3         a              0.287267613 a.u.                7.8170 eV 
  <S2> =   2.4536
  ----------------------------------------------------------------------------
     Transition Moments    X -0.30904   Y -0.11861   Z  0.01458
     Transition Moments   XX  0.00000  XY  0.00000  XZ  0.00000
     Transition Moments   YY  0.00000  YZ  0.00000  ZZ  0.00000
     Dipole Oscillator Strength                    0.0210255275
     Electric Quadrupole                           0.0000000000
     Magnetic Dipole                               0.0000000000
     Total Oscillator Strength                     0.0210255275

     Occ.   18 alpha a   ---  Virt.   19 alpha a   -0.36983 X
     Occ.   18 alpha a   ---  Virt.   28 alpha a    0.08304 X
     Occ.   17 beta  a   ---  Virt.   19 beta  a    0.90999 X
     Occ.   17 beta  a   ---  Virt.   28 beta  a   -0.15585 X
  ----------------------------------------------------------------------------
  Root   4         a              0.287267616 a.u.                7.8170 eV 
  <S2> =   2.4536
  ----------------------------------------------------------------------------
     Transition Moments    X  0.11202   Y -0.30159   Z -0.07908
     Transition Moments   XX -0.00000  XY -0.00000  XZ -0.00000
     Transition Moments   YY -0.00000  YZ  0.00000  ZZ  0.00000
     Dipole Oscillator Strength                    0.0210202330
     Electric Quadrupole                           0.0000000000
     Magnetic Dipole                               0.0000000000
     Total Oscillator Strength                     0.0210202330

     Occ.   17 alpha a   ---  Virt.   19 alpha a   -0.36984 X
     Occ.   17 alpha a   ---  Virt.   28 alpha a    0.08305 X
     Occ.   16 beta  a   ---  Virt.   19 beta  a    0.90999 X
     Occ.   16 beta  a   ---  Virt.   28 beta  a   -0.15585 X
  ----------------------------------------------------------------------------
  Root   5         a              0.300644973 a.u.                8.1810 eV 
  <S2> =   1.0518
  ----------------------------------------------------------------------------
     Transition Moments    X  0.70304   Y  0.26935   Z -0.03327
     Transition Moments   XX  0.00000  XY -0.00000  XZ  0.00000
     Transition Moments   YY  0.00000  YZ  0.00000  ZZ -0.00000
     Dipole Oscillator Strength                    0.1138291816
     Electric Quadrupole                           0.0000000000
     Magnetic Dipole                               0.0000000000
     Total Oscillator Strength                     0.1138291816

     Occ.   18 alpha a   ---  Virt.   19 alpha a   -0.91312 X
     Occ.   18 alpha a   ---  Virt.   28 alpha a    0.13994 X
     Occ.   17 beta  a   ---  Virt.   19 beta  a   -0.37843 X

              Target root =      1
          Target symmetry = none
      Ground state energy =  -2573.805697777653
        Excitation energy =      0.000116267044
     Excited state energy =  -2573.805581510609

  stored tddft:energy   -2573.8055815106086     

 Task  times  cpu:       97.8s     wall:      111.7s


                                NWChem Input Module
                                -------------------


 Summary of allocated global arrays
-----------------------------------
  No active global arrays


MA_summarize_allocated_blocks: starting scan ...
heap block 'gridpts', handle 124, address 0x13d2d1a8:
	type of elements:		double precision
	number of elements:		1048456220
	address of client space:	0x13d2d200
	index for client space:		13415831
	total number of bytes:		8387649856
MA_summarize_allocated_blocks: scan completed: 1 heap block, 0 stack blocks
MA usage statistics:

	allocation statistics:
					      heap	     stack
					      ----	     -----
	current number of blocks	         1	         0
	maximum number of blocks	        18	        54
	current total bytes		8387649856	         0
	maximum total bytes		8388837232	 109417528
	maximum total K-bytes		   8388838	    109418
	maximum total M-bytes		      8389	       110


                                     CITATION
                                     --------
                Please cite the following reference when publishing
                           results obtained with NWChem:

          E. Apra, E. J. Bylaska, W. A. de Jong, N. Govind, K. Kowalski,
       T. P. Straatsma, M. Valiev, H. J. J. van Dam, Y. Alexeev, J. Anchell,
       V. Anisimov, F. W. Aquino, R. Atta-Fynn, J. Autschbach, N. P. Bauman,
     J. C. Becca, D. E. Bernholdt, K. Bhaskaran-Nair, S. Bogatko, P. Borowski,
         J. Boschen, J. Brabec, A. Bruner, E. Cauet, Y. Chen, G. N. Chuev,
      C. J. Cramer, J. Daily, M. J. O. Deegan, T. H. Dunning Jr., M. Dupuis,
   K. G. Dyall, G. I. Fann, S. A. Fischer, A. Fonari, H. Fruchtl, L. Gagliardi,
      J. Garza, N. Gawande, S. Ghosh, K. Glaesemann, A. W. Gotz, J. Hammond,
       V. Helms, E. D. Hermes, K. Hirao, S. Hirata, M. Jacquelin, L. Jensen,
   B. G. Johnson, H. Jonsson, R. A. Kendall, M. Klemm, R. Kobayashi, V. Konkov,
      S. Krishnamoorthy, M. Krishnan, Z. Lin, R. D. Lins, R. J. Littlefield,
      A. J. Logsdail, K. Lopata, W. Ma, A. V. Marenich, J. Martin del Campo,
   D. Mejia-Rodriguez, J. E. Moore, J. M. Mullin, T. Nakajima, D. R. Nascimento,
    J. A. Nichols, P. J. Nichols, J. Nieplocha, A. Otero-de-la-Roza, B. Palmer,
    A. Panyala, T. Pirojsirikul, B. Peng, R. Peverati, J. Pittner, L. Pollack,
   R. M. Richard, P. Sadayappan, G. C. Schatz, W. A. Shelton, D. W. Silverstein,
   D. M. A. Smith, T. A. Soares, D. Song, M. Swart, H. L. Taylor, G. S. Thomas,
            V. Tipparaju, D. G. Truhlar, K. Tsemekhman, T. Van Voorhis,
      A. Vazquez-Mayagoitia, P. Verma, O. Villa, A. Vishnu, K. D. Vogiatzis,
        D. Wang, J. H. Weare, M. J. Williamson, T. L. Windus, K. Wolinski,
        A. T. Wong, Q. Wu, C. Yang, Q. Yu, M. Zacharias, Z. Zhang, Y. Zhao,
                                and R. J. Harrison
                        "NWChem: Past, present, and future
                         J. Chem. Phys. 152, 184102 (2020)
                               doi:10.1063/5.0004997

                                      AUTHORS
                                      -------
  E. Apra, E. J. Bylaska, N. Govind, K. Kowalski, M. Valiev, D. Mejia-Rodriguez,
       A. Kunitsa, N. P. Bauman, A. Panyala, W. A. de Jong, T. P. Straatsma,
   H. J. J. van Dam, D. Wang, T. L. Windus, J. Hammond, J. Autschbach, A. Woods,
    K. Bhaskaran-Nair, J. Brabec, K. Lopata, S. A. Fischer, S. Krishnamoorthy,
     M. Jacquelin, W. Ma, M. Klemm, O. Villa, Y. Chen, V. Anisimov, F. Aquino,
     S. Hirata, M. T. Hackler, E. Hermes, L. Jensen, J. E. Moore, J. C. Becca,
      V. Konjkov, T. Risthaus, M. Malagoli, A. Marenich, A. Otero-de-la-Roza,
        J. Mullin, P. Nichols, R. Peverati, J. Pittner, Y. Zhao, P.-D. Fan,
        A. Fonari, M. J. Williamson, R. J. Harrison, J. R. Rehr, M. Dupuis,
     D. Silverstein, D. M. A. Smith, J. Nieplocha, V. Tipparaju, M. Krishnan,
     B. E. Van Kuiken, A. Vazquez-Mayagoitia, M. Swart, Q. Wu, T. Van Voorhis,
     A. A. Auer, M. Nooijen, L. D. Crosby, E. Brown, G. Cisneros, G. I. Fann,
   H. Fruchtl, J. Garza, K. Hirao, R. A. Kendall, J. A. Nichols, K. Tsemekhman,
    K. Wolinski, J. Anchell, D. E. Bernholdt, P. Borowski, T. Clark, D. Clerc,
   H. Dachsel, M. J. O. Deegan, K. Dyall, D. Elwood, E. Glendening, M. Gutowski,
   A. C. Hess, J. Jaffe, B. G. Johnson, J. Ju, R. Kobayashi, R. Kutteh, Z. Lin,
   R. Littlefield, X. Long, B. Meng, T. Nakajima, S. Niu, L. Pollack, M. Rosing,
   K. Glaesemann, G. Sandrone, M. Stave, H. Taylor, G. Thomas, J. H. van Lenthe,
                               A. T. Wong, Z. Zhang.

 Total times  cpu:       97.8s     wall:      112.9s
