 argument  1 = /home/aditisingh4812/nw_chem/nwchem-run/nwchem-run/tddft/open/open_atom/geom-MOL/br.nw
                                         
                                         


             Northwest Computational Chemistry Package (NWChem) 7.2.3
             --------------------------------------------------------


                    Environmental Molecular Sciences Laboratory
                       Pacific Northwest National Laboratory
                                Richland, WA 99352

                              Copyright (c) 1994-2022
                       Pacific Northwest National Laboratory
                            Battelle Memorial Institute

             NWChem is an open-source computational chemistry package
                        distributed under the terms of the
                      Educational Community License (ECL) 2.0
             A copy of the license is included with this distribution
                              in the LICENSE.TXT file

                                  ACKNOWLEDGMENT
                                  --------------

            This software and its documentation were developed at the
            EMSL at Pacific Northwest National Laboratory, a multiprogram
            national laboratory, operated for the U.S. Department of Energy
            by Battelle under Contract Number DE-AC05-76RL01830. Support
            for this work was provided by the Department of Energy Office
            of Biological and Environmental Research, Office of Basic
            Energy Sciences, and the Office of Advanced Scientific Computing.


           Job information
           ---------------

    hostname        = p17
    program         = /home/aditisingh4812/nw_chem/nwchem-7.2.3-release.revision-d690e065-srconly.2024-08-27/nwchem-7.2.3/bin/LINUX64/nwchem
    date            = Thu May  8 11:47:30 2025

    compiled        = Mon_Apr_07_18:51:54_2025
    source          = /home/aditisingh4812/nw_chem/nwchem-7.2.3-release.revision-d690e065-srconly.2024-08-27/nwchem-7.2.3
    nwchem branch   = 7.2.3
    nwchem revision = d690e065
    ga revision     = 5.8.0
    use scalapack   = F
    input           = /home/aditisingh4812/nw_chem/nwchem-run/nwchem-run/tddft/open/open_atom/geom-MOL/br.nw
    prefix          = br.
    data base       = ./br.db
    status          = startup
    nproc           =        8
    time left       =     -1s



           Memory information
           ------------------

    heap     = 2621439998 doubles =  20000.0 Mbytes
    stack    = 2621439995 doubles =  20000.0 Mbytes
    global   = 6553600000 doubles =  50000.0 Mbytes (distinct from heap & stack)
    total    = ********** doubles =  90000.0 Mbytes
    verify   = yes
    hardfail = no 


           Directory information
           ---------------------

  0 permanent = .
  0 scratch   = .




                                NWChem Input Module
                                -------------------



 Scaling coordinates for geometry "geometry" by  1.889725989
 (inverse scale =  0.529177249)



                             Geometry "geometry" -> ""
                             -------------------------

 Output coordinates in angstroms (scale by  1.889725989 to convert to a.u.)

  No.       Tag          Charge          X              Y              Z
 ---- ---------------- ---------- -------------- -------------- --------------
    1 Br                  35.0000     0.00000000     0.00000000     0.00000000

      Atomic Mass 
      ----------- 

      Br                79.916500


 Effective nuclear repulsion energy (a.u.)       0.0000000000

            Nuclear Dipole moment (a.u.) 
            ----------------------------
        X                 Y               Z
 ---------------- ---------------- ----------------
     0.0000000000     0.0000000000     0.0000000000


            XYZ format geometry
            -------------------
     1
 geometry
 Br                    0.00000000     0.00000000     0.00000000



 Summary of "ao basis" -> "" (cartesian)
 ------------------------------------------------------------------------------
       Tag                 Description            Shells   Functions and Types
 ---------------- ------------------------------  ------  ---------------------
 *                        aug-cc-pVTZ                 on all atoms 


  pbe96 is a nonlocal functional; adding pw91lda local functional. 

                                 NWChem DFT Module
                                 -----------------


                      Basis "ao basis" -> "ao basis" (cartesian)
                      -----
  Br (Bromine)
  ------------
            Exponent  Coefficients 
       -------------- ---------------------------------------------------------
  1 S  1.06390000E+07  0.000006
  1 S  1.59340000E+06  0.000046
  1 S  3.62610000E+05  0.000242
  1 S  1.02700000E+05  0.001023
  1 S  3.35010000E+04  0.003711
  1 S  1.20930000E+04  0.011979
  1 S  4.71590000E+03  0.034693
  1 S  1.95560000E+03  0.089124
  1 S  8.52610000E+02  0.193456
  1 S  3.87670000E+02  0.320902
  1 S  1.82680000E+02  0.329923
  1 S  8.82450000E+01  0.149412
  1 S  3.92630000E+01  0.014994
  1 S  1.92340000E+01 -0.000917
  1 S  9.40570000E+00  0.000438
  1 S  4.16010000E+00 -0.000240
  1 S  1.89950000E+00  0.000074
  1 S  3.01140000E-01  0.000024

  2 S  1.06390000E+07 -0.000002
  2 S  1.59340000E+06 -0.000015
  2 S  3.62610000E+05 -0.000076
  2 S  1.02700000E+05 -0.000321
  2 S  3.35010000E+04 -0.001171
  2 S  1.20930000E+04 -0.003797
  2 S  4.71590000E+03 -0.011231
  2 S  1.95560000E+03 -0.029928
  2 S  8.52610000E+02 -0.071271
  2 S  3.87670000E+02 -0.140314
  2 S  1.82680000E+02 -0.203076
  2 S  8.82450000E+01 -0.096099
  2 S  3.92630000E+01  0.355809
  2 S  1.92340000E+01  0.592179
  2 S  9.40570000E+00  0.221598
  2 S  4.16010000E+00  0.013765
  2 S  1.89950000E+00  0.000840
  2 S  3.01140000E-01 -0.000009

  3 S  1.06390000E+07  0.000001
  3 S  1.59340000E+06  0.000006
  3 S  3.62610000E+05  0.000030
  3 S  1.02700000E+05  0.000128
  3 S  3.35010000E+04  0.000466
  3 S  1.20930000E+04  0.001510
  3 S  4.71590000E+03  0.004485
  3 S  1.95560000E+03  0.011984
  3 S  8.52610000E+02  0.028957
  3 S  3.87670000E+02  0.058157
  3 S  1.82680000E+02  0.088813
  3 S  8.82450000E+01  0.044524
  3 S  3.92630000E+01 -0.206039
  3 S  1.92340000E+01 -0.512702
  3 S  9.40570000E+00 -0.150935
  3 S  4.16010000E+00  0.678920
  3 S  1.89950000E+00  0.581770
  3 S  3.01140000E-01 -0.011183

  4 S  1.06390000E+07 -0.000000
  4 S  1.59340000E+06 -0.000002
  4 S  3.62610000E+05 -0.000009
  4 S  1.02700000E+05 -0.000039
  4 S  3.35010000E+04 -0.000143
  4 S  1.20930000E+04 -0.000463
  4 S  4.71590000E+03 -0.001375
  4 S  1.95560000E+03 -0.003678
  4 S  8.52610000E+02 -0.008898
  4 S  3.87670000E+02 -0.017953
  4 S  1.82680000E+02 -0.027573
  4 S  8.82450000E+01 -0.014095
  4 S  3.92630000E+01  0.067256
  4 S  1.92340000E+01  0.176693
  4 S  9.40570000E+00  0.052886
  4 S  4.16010000E+00 -0.307596
  4 S  1.89950000E+00 -0.470066
  4 S  3.01140000E-01  0.698034

  5 S  6.04720000E-01  1.000000

  6 S  1.25150000E-01  1.000000

  7 S  4.55930000E-02  1.000000

  8 P  8.67650000E+03  0.000436
  8 P  2.05590000E+03  0.003782
  8 P  6.66230000E+02  0.020478
  8 P  2.53100000E+02  0.079283
  8 P  1.06120000E+02  0.217847
  8 P  4.72420000E+01  0.387859
  8 P  2.18250000E+01  0.359435
  8 P  9.96840000E+00  0.112200
  8 P  4.51710000E+00  0.004387
  8 P  1.99820000E+00  0.001781
  8 P  2.81450000E-01  0.000212

  9 P  8.67650000E+03 -0.000175
  9 P  2.05590000E+03 -0.001526
  9 P  6.66230000E+02 -0.008340
  9 P  2.53100000E+02 -0.033220
  9 P  1.06120000E+02 -0.095418
  9 P  4.72420000E+01 -0.182403
  9 P  2.18250000E+01 -0.155831
  9 P  9.96840000E+00  0.186790
  9 P  4.51710000E+00  0.542773
  9 P  1.99820000E+00  0.387331
  9 P  2.81450000E-01 -0.004378

 10 P  8.67650000E+03  0.000045
 10 P  2.05590000E+03  0.000396
 10 P  6.66230000E+02  0.002156
 10 P  2.53100000E+02  0.008672
 10 P  1.06120000E+02  0.024868
 10 P  4.72420000E+01  0.048547
 10 P  2.18250000E+01  0.039616
 10 P  9.96840000E+00 -0.060575
 10 P  4.51710000E+00 -0.187170
 10 P  1.99820000E+00 -0.137776
 10 P  2.81450000E-01  0.576090

 11 P  7.09880000E-01  1.000000

 12 P  1.02040000E-01  1.000000

 13 P  3.51420000E-02  1.000000

 14 D  4.03830000E+02  0.001473
 14 D  1.21170000E+02  0.012673
 14 D  4.63450000E+01  0.058045
 14 D  1.97210000E+01  0.170510
 14 D  8.86240000E+00  0.318596
 14 D  3.99620000E+00  0.384502
 14 D  1.76360000E+00  0.273774

 15 D  7.06190000E-01  1.000000

 16 D  2.63900000E-01  1.000000

 17 D  1.04700000E-01  1.000000

 18 F  5.51500000E-01  1.000000

 19 F  2.58000000E-01  1.000000



 Summary of "ao basis" -> "ao basis" (cartesian)
 ------------------------------------------------------------------------------
       Tag                 Description            Shells   Functions and Types
 ---------------- ------------------------------  ------  ---------------------
 Br                       aug-cc-pVTZ               19       69   7s6p4d2f




 Summary of "ao basis" -> "ao basis" (cartesian)
 ------------------------------------------------------------------------------
       Tag                 Description            Shells   Functions and Types
 ---------------- ------------------------------  ------  ---------------------
 Br                       aug-cc-pVTZ               19       69   7s6p4d2f




                         Geometry "geometry" -> "geometry"
                         ---------------------------------

 Output coordinates in angstroms (scale by  1.889725989 to convert to a.u.)

  No.       Tag          Charge          X              Y              Z
 ---- ---------------- ---------- -------------- -------------- --------------
    1 Br                  35.0000     0.00000000     0.00000000     0.00000000

      Atomic Mass 
      ----------- 

      Br                79.916500


 Effective nuclear repulsion energy (a.u.)       0.0000000000

            Nuclear Dipole moment (a.u.) 
            ----------------------------
        X                 Y               Z
 ---------------- ---------------- ----------------
     0.0000000000     0.0000000000     0.0000000000


                      Basis "ao basis" -> "ao basis" (cartesian)
                      -----
  Br (Bromine)
  ------------
            Exponent  Coefficients 
       -------------- ---------------------------------------------------------
  1 S  1.06390000E+07  0.783316
  1 S  1.59340000E+06  1.473513
  1 S  3.62610000E+05  2.550724
  1 S  1.02700000E+05  4.181125
  1 S  3.35010000E+04  6.549813
  1 S  1.20930000E+04  9.844927
  1 S  4.71590000E+03 14.070874
  1 S  1.95560000E+03 18.679434
  1 S  8.52610000E+02 21.754738
  1 S  3.87670000E+02 19.981517
  1 S  1.82680000E+02 11.683979
  1 S  8.82450000E+01  3.065934
  1 S  3.92630000E+01  0.167613
  1 S  1.92340000E+01 -0.005999
  1 S  9.40570000E+00  0.001677
  1 S  4.16010000E+00 -0.000498
  1 S  1.89950000E+00  0.000085
  1 S  3.01140000E-01  0.000007

  2 S  1.06390000E+07 -0.252252
  2 S  1.59340000E+06 -0.463465
  2 S  3.62610000E+05 -0.801438
  2 S  1.02700000E+05 -1.312466
  2 S  3.35010000E+04 -2.066419
  2 S  1.20930000E+04 -3.120496
  2 S  4.71590000E+03 -4.554971
  2 S  1.95560000E+03 -6.272471
  2 S  8.52610000E+02 -8.014539
  2 S  3.87670000E+02 -8.736786
  2 S  1.82680000E+02 -7.191721
  2 S  8.82450000E+01 -1.971921
  2 S  3.92630000E+01  3.977492
  2 S  1.92340000E+01  3.876240
  2 S  9.40570000E+00  0.848231
  2 S  4.16010000E+00  0.028576
  2 S  1.89950000E+00  0.000968
  2 S  3.01140000E-01 -0.000002

  3 S  1.06390000E+07  0.096079
  3 S  1.59340000E+06  0.188354
  3 S  3.62610000E+05  0.329897
  3 S  1.02700000E+05  0.538945
  3 S  3.35010000E+04  0.850046
  3 S  1.20930000E+04  1.282682
  3 S  4.71590000E+03  1.880666
  3 S  1.95560000E+03  2.596571
  3 S  8.52610000E+02  3.366467
  3 S  3.87670000E+02  3.743710
  3 S  1.82680000E+02  3.251642
  3 S  8.82450000E+01  0.944544
  3 S  3.92630000E+01 -2.381184
  3 S  1.92340000E+01 -3.469552
  3 S  9.40570000E+00 -0.597296
  3 S  4.16010000E+00  1.457146
  3 S  1.89950000E+00  0.693565
  3 S  3.01140000E-01 -0.003349

  4 S  1.06390000E+07 -0.040774
  4 S  1.59340000E+06 -0.088348
  4 S  3.62610000E+05 -0.150399
  4 S  1.02700000E+05 -0.245492
  4 S  3.35010000E+04 -0.386993
  4 S  1.20930000E+04 -0.584085
  4 S  4.71590000E+03 -0.856363
  4 S  1.95560000E+03 -1.183861
  4 S  8.52610000E+02 -1.536533
  4 S  3.87670000E+02 -1.716576
  4 S  1.82680000E+02 -1.499468
  4 S  8.82450000E+01 -0.444144
  4 S  3.92630000E+01  1.154519
  4 S  1.92340000E+01  1.776041
  4 S  9.40570000E+00  0.310861
  4 S  4.16010000E+00 -0.980595
  4 S  1.89950000E+00 -0.832377
  4 S  3.01140000E-01  0.310552

  5 S  6.04720000E-01  0.488738

  6 S  1.25150000E-01  0.149963

  7 S  4.55930000E-02  0.070321

  8 P  8.67650000E+03 52.005081
  8 P  2.05590000E+03 74.618084
  8 P  6.66230000E+02 98.798310
  8 P  2.53100000E+02114.084055
  8 P  1.06120000E+02105.761167
  8 P  4.72420000E+01 68.471708
  8 P  2.18250000E+01 24.167998
  8 P  9.96840000E+00  2.832698
  8 P  4.51710000E+00  0.041182
  8 P  1.99820000E+00  0.006031
  8 P  2.81450000E-01  0.000062

  9 P  8.67650000E+03-21.384395
  9 P  2.05590000E+03-30.868620
  9 P  6.66230000E+02-41.239738
  9 P  2.53100000E+02-48.994075
  9 P  1.06120000E+02-47.479014
  9 P  4.72420000E+01-33.003971
  9 P  2.18250000E+01-10.739176
  9 P  9.96840000E+00  4.833481
  9 P  4.51710000E+00  5.221772
  9 P  1.99820000E+00  1.344329
  9 P  2.81450000E-01 -0.001311

 10 P  8.67650000E+03  9.038447
 10 P  2.05590000E+03 13.133265
 10 P  6.66230000E+02 17.460828
 10 P  2.53100000E+02 20.951785
 10 P  1.06120000E+02 20.270945
 10 P  4.72420000E+01 14.390011
 10 P  2.18250000E+01  4.472451
 10 P  9.96840000E+00 -2.567799
 10 P  4.51710000E+00 -2.949832
 10 P  1.99820000E+00 -0.783354
 10 P  2.81450000E-01  0.282636

 11 P  7.09880000E-01  0.928798

 12 P  1.02040000E-01  0.082206

 13 P  3.51420000E-02  0.021688

 14 D  4.03830000E+02 90.859556
 14 D  1.21170000E+02 95.074736
 14 D  4.63450000E+01 81.008763
 14 D  1.97210000E+01 53.350395
 14 D  8.86240000E+00 24.587609
 14 D  3.99620000E+00  7.362799
 14 D  1.76360000E+00  1.252718

 15 D  7.06190000E-01  0.895411

 16 D  2.63900000E-01  0.159929

 17 D  1.04700000E-01  0.031719

 18 F  5.51500000E-01  0.385862

 19 F  2.58000000E-01  0.069839



    Basis function labels
    ---------------------
       No.  Atm El Type
       ---  --- -- ----
        1    1 Br s          
        2    1 Br s          
        3    1 Br s          
        4    1 Br s          
        5    1 Br s          
        6    1 Br s          
        7    1 Br s          
        8    1 Br px         
        9    1 Br py         
       10    1 Br pz         
       11    1 Br px         
       12    1 Br py         
       13    1 Br pz         
       14    1 Br px         
       15    1 Br py         
       16    1 Br pz         
       17    1 Br px         
       18    1 Br py         
       19    1 Br pz         
       20    1 Br px         
       21    1 Br py         
       22    1 Br pz         
       23    1 Br px         
       24    1 Br py         
       25    1 Br pz         
       26    1 Br dxx        
       27    1 Br dxy        
       28    1 Br dxz        
       29    1 Br dyy        
       30    1 Br dyz        
       31    1 Br dzz        
       32    1 Br dxx        
       33    1 Br dxy        
       34    1 Br dxz        
       35    1 Br dyy        
       36    1 Br dyz        
       37    1 Br dzz        
       38    1 Br dxx        
       39    1 Br dxy        
       40    1 Br dxz        
       41    1 Br dyy        
       42    1 Br dyz        
       43    1 Br dzz        
       44    1 Br dxx        
       45    1 Br dxy        
       46    1 Br dxz        
       47    1 Br dyy        
       48    1 Br dyz        
       49    1 Br dzz        
       50    1 Br fxxx       
       51    1 Br fxxy       
       52    1 Br fxxz       
       53    1 Br fxyy       
       54    1 Br fxyz       
       55    1 Br fxzz       
       56    1 Br fyyy       
       57    1 Br fyyz       
       58    1 Br fyzz       
       59    1 Br fzzz       
       60    1 Br fxxx       
       61    1 Br fxxy       
       62    1 Br fxxz       
       63    1 Br fxyy       
       64    1 Br fxyz       
       65    1 Br fxzz       
       66    1 Br fyyy       
       67    1 Br fyyz       
       68    1 Br fyzz       
       69    1 Br fzzz       
  int_init: cando_txs set to always be  F

 Schwarz integral screening summary 
 ---------------------------------- 

        No. of atom pairs =       1
       No. of shell pairs =     190

 Atomic screening 

   value      no.     value      no.     value      no.     value      no.   
  -------- ------    -------- ------    -------- ------    -------- ------   
  0.00D+00      0    1.00D-13      0    1.00D-12      0    1.00D-11      0
  1.00D-10      0    1.00D-09      0    1.00D-08      0    1.00D-07      0
  1.00D-06      0    1.00D-05      0    1.00D-04      0    1.00D-03      0
  1.00D-02      0    1.00D-01      0    1.00D+00      0    1.00D+01      1


 Shell screening 

   value      no.     value      no.     value      no.     value      no.   
  -------- ------    -------- ------    -------- ------    -------- ------   
  0.00D+00      0    1.00D-13      0    1.00D-12      0    1.00D-11      0
  1.00D-10      0    1.00D-09      0    1.00D-08      0    1.00D-07      0
  1.00D-06      0    1.00D-05      2    1.00D-04      3    1.00D-03      8
  1.00D-02     14    1.00D-01     66    1.00D+00     95    1.00D+01      2


  Caching 1-el integrals 
  atom                     1  - neighbor  & S                     1   10.000000000000000       exp AB    3.5142000000000027E-002   3.5142000000000027E-002
 zmins =     0.035142000    0.035142000 lprod =   2 range =        17.70 acc   0.10D-06
 sh     0.000000000
  Center:                     1  Radial Pts. & Wghts. 
    1        0.000001662           1.3764685E-17
    2        0.000013293           3.5237769E-15
    3        0.000044866           9.0311771E-14
    4        0.000106349           9.0212292E-13
    5        0.000207715           5.3773056E-12
    6        0.000358937           2.3122931E-11
    7        0.000569992           7.9370033E-11
    8        0.000850860           2.3101730E-10
    9        0.001211525           5.9283241E-10
   10        0.001661980           1.3774501E-09
   11        0.002212226           2.9533842E-09
   12        0.002872274           5.9258616E-09
   13        0.003652149           1.1245888E-08
   14        0.004561892           2.0353582E-08
   15        0.005611560           3.5362451E-08
   16        0.006811232           5.9291963E-08
   17        0.008171012           9.6356466E-08
   18        0.009701031           1.5231925E-07
   19        0.011411452           2.3492132E-07
   20        0.013312471           3.5439534E-07
   21        0.015414324           5.2407594E-07
   22        0.017727293           7.6111886E-07
   23        0.020261703           1.0873420E-06
   24        0.023027936           1.5302029E-06
   25        0.026036431           2.1239286E-06
   26        0.029297688           2.9108139E-06
   27        0.032822278           3.9427082E-06
   28        0.036620847           5.2827086E-06
   29        0.040704120           7.0070831E-06
   30        0.045082911           9.2074466E-06
   31        0.049768129           1.1993215E-05
   32        0.054770782           1.5494368E-05
   33        0.060101989           1.9864547E-05
   34        0.065772984           2.5284523E-05
   35        0.071795128           3.1966077E-05
   36        0.078179914           4.0156326E-05
   37        0.084938978           5.0142534E-05
   38        0.092084107           6.2257474E-05
   39        0.099627251           7.6885375E-05
   40        0.107580532           9.4468520E-05
   41        0.115956254           1.1551456E-04
   42        0.124766916           1.4060462E-04
   43        0.134025222           1.7040224E-04
   44        0.143744097           2.0566332E-04
   45        0.153936693           2.4724704E-04
   46        0.164616411           2.9612796E-04
   47        0.175796912           3.5340941E-04
   48        0.187492128           4.2033820E-04
   49        0.199716284           4.9832094E-04
   50        0.212483913           5.8894201E-04
   51        0.225809871           6.9398336E-04
   52        0.239709358           8.1544644E-04
   53        0.254197936           9.5557636E-04
   54        0.269291551           1.1168886E-03
   55        0.285006553           1.3021983E-03
   56        0.301359721           1.5146532E-03
   57        0.318368284           1.7577692E-03
   58        0.336049951           2.0354702E-03
   59        0.354422931           2.3521323E-03
   60        0.373505970           2.7126321E-03
   61        0.393318376           3.1224008E-03
   62        0.413880051           3.5874837E-03
   63        0.435211527           4.1146063E-03
   64        0.457334003           4.7112477E-03
   65        0.480269380           5.3857215E-03
   66        0.504040305           6.1472668E-03
   67        0.528670214           7.0061482E-03
   68        0.554183379           7.9737675E-03
   69        0.580604956           9.0627880E-03
   70        0.607961039           1.0287273E-02
   71        0.636278717           1.1662842E-02
   72        0.665586137           1.3206840E-02
   73        0.695912564           1.4938533E-02
   74        0.727288457           1.6879323E-02
   75        0.759745536           1.9052991E-02
   76        0.793316874           2.1485968E-02
   77        0.828036974           2.4207636E-02
   78        0.863941866           2.7250678E-02
   79        0.901069210           3.0651456E-02
   80        0.939458404           3.4450452E-02
   81        0.979150701           3.8692756E-02
   82        1.020189338           4.3428623E-02
   83        1.062619677           4.8714099E-02
   84        1.106489351           5.4611740E-02
   85        1.151848434           6.1191422E-02
   86        1.198749615           6.8531259E-02
   87        1.247248396           7.6718666E-02
   88        1.297403307           8.5851555E-02
   89        1.349276134           9.6039717E-02
   90        1.402932181           1.0740640E-01
   91        1.458440550           1.2009014E-01
   92        1.515874450           1.3424684E-01
   93        1.575311537           1.5005221E-01
   94        1.636834299           1.6770453E-01
   95        1.700530465           1.8742797E-01
   96        1.766493476           2.0947633E-01
   97        1.834822999           2.3413748E-01
   98        1.905625501           2.6173852E-01
   99        1.979014897           2.9265191E-01
  100        2.055113265           3.2730255E-01
  101        2.134051659           3.6617635E-01
  102        2.215971021           4.0983017E-01
  103        2.301023210           4.5890387E-01
  104        2.389372171           5.1413452E-01
  105        2.481195262           5.7637361E-01
  106        2.576684768           6.4660770E-01
  107        2.676049639           7.2598346E-01
  108        2.779517479           8.1583811E-01
  109        2.887336847           9.1773669E-01
  110        2.999779923           1.0335178E+00
  111        3.117145609           1.1653504E+00
  112        3.239763158           1.3158040E+00
  113        3.367996436           1.4879372E+00
  114        3.502248966           1.6854087E+00
  115        3.642969920           1.9126190E+00
  116        3.790661281           2.1748912E+00
  117        3.945886482           2.4787054E+00
  118        4.109280870           2.8320033E+00
  119        4.281564509           3.2445901E+00
  120        4.463557949           3.7286699E+00
  121        4.656201865           4.2995656E+00
  122        4.860581715           4.9767032E+00
  123        5.077959093           5.7849734E+00
  124        5.309812031           6.7566467E+00
  125        5.557887552           7.9341132E+00
  126        5.824271197           9.3738799E+00
  127        6.111480574           1.1152530E+01
  128        6.422593640           1.3375823E+01
  129        6.761428439           1.6192998E+01
  130        7.132801217           1.9819961E+01
  131        7.542907931           2.4578328E+01
  132        7.999907432           3.0964084E+01
  133        8.514849593           3.9774827E+01
  134        9.103226456           5.2361085E+01
  135        9.787727198           7.1163777E+01
  136       10.603527672           1.0098745E+02
  137       11.609557657           1.5246090E+02
  138       12.916290321           2.5348539E+02
  139       14.771742116           5.0096243E+02
  140       17.967313869           1.4930470E+03
     irreducible set of Lebedev Angular points ;
  0.009523809523810  1.000000000000000  0.000000000000000  0.000000000000000
  0.032142857142857  0.577350269189626  0.577350269189626  0.577350269189626
  0.028571428571429  0.459700843380983  0.000000000000000  0.888073833977115
   total no. of   reducible points:  38; test:  1.00000000
  0.012698412698413  1.000000000000000  0.000000000000000  0.000000000000000
  0.022574955908289  0.707106781186547  0.707106781186547  0.000000000000000
  0.021093750000000  0.577350269189626  0.577350269189626  0.577350269189626
  0.020173335537919  0.301511344577764  0.301511344577764  0.904534033733291
   total no. of   reducible points:  50; test:  1.00000000
  0.000513067179734  1.000000000000000  0.000000000000000  0.000000000000000
  0.016604069565742  0.707106781186547  0.707106781186547  0.000000000000000
 -0.029586038961039  0.577350269189626  0.577350269189626  0.577350269189626
  0.026576207082159  0.480384461415261  0.480384461415261  0.733799385705343
  0.016522170993716  0.320772648980776  0.000000000000000  0.947156221362588
   total no. of   reducible points:  74; test:  1.00000000
  0.011544011544012  1.000000000000000  0.000000000000000  0.000000000000000
  0.011943909085856  0.577350269189626  0.577350269189626  0.577350269189626
  0.011110555710603  0.369602846454150  0.369602846454150  0.852518311701268
  0.011876501294537  0.694354006602666  0.694354006602666  0.189063552885395
  0.011812303746904  0.374243039090341  0.000000000000000  0.927330657151172
   total no. of   reducible points:  86; test:  1.00000000
  0.003828270494937  1.000000000000000  0.000000000000000  0.000000000000000
  0.009793737512488  0.577350269189626  0.577350269189626  0.577350269189626
  0.008211737283191  0.185115635344736  0.185115635344736  0.965124035086594
  0.009942814891178  0.690421048382292  0.690421048382292  0.215957291845848
  0.009595471336071  0.395689473055942  0.395689473055942  0.828769981252592
  0.009694996361663  0.478369028812150  0.000000000000000  0.878158910604066
   total no. of   reducible points: 110; test:  1.00000000
  0.000599631368862  1.000000000000000  0.000000000000000  0.000000000000000
  0.007372999718621  0.707106781186547  0.707106781186547  0.000000000000000
  0.007210515360144  0.577350269189626  0.577350269189626  0.577350269189626
  0.007116355493118  0.676441040011426  0.676441040011426  0.291298882209527
  0.006753829486314  0.417496122796545  0.417496122796545  0.807089818359583
  0.007574394159054  0.157467667203908  0.157467667203908  0.974888643677173
  0.006991087353303  0.140355381171318  0.449332832326956  0.882270011260323
   total no. of   reducible points: 146; test:  1.00000000
  0.005544842902037  1.000000000000000  0.000000000000000  0.000000000000000
  0.006071332770671  0.707106781186547  0.707106781186547  0.000000000000000
  0.006383674773515  0.577350269189626  0.577350269189626  0.577350269189626
  0.005183387587748  0.255125262111413  0.255125262111413  0.932642590312691
  0.006317929009814  0.674360146036277  0.674360146036277  0.300793595137701
  0.006201670006589  0.431891069671941  0.431891069671941  0.791795559393492
  0.005477143385137  0.261393136033599  0.000000000000000  0.965232421976448
  0.005968383987681  0.499045316179604  0.144663074432512  0.854415804684659
   total no. of   reducible points: 170; test:  1.00000000
  0.001782340447245  1.000000000000000  0.000000000000000  0.000000000000000
  0.005716905949977  0.707106781186547  0.707106781186547  0.000000000000000
  0.005573383178849  0.577350269189626  0.577350269189626  0.577350269189626
  0.005608704082588  0.671297344269523  0.671297344269523  0.314196994182586
  0.005158237711805  0.289246562757544  0.289246562757544  0.912509096867474
  0.005518771467274  0.444693317871744  0.444693317871744  0.777493219314767
  0.004106777028169  0.129933544765007  0.129933544765007  0.982972302707253
  0.005051846064615  0.345770219761128  0.000000000000000  0.938319218137592
  0.005530248916233  0.159041710538353  0.836036015482459  0.525118572443642
   total no. of   reducible points: 194; test:  1.00000000
 -0.055226399197273  1.000000000000000  0.000000000000000  0.000000000000000
  0.004450274607445  0.577350269189626  0.577350269189626  0.577350269189626
  0.004496841067921  0.449204468739761  0.449204468739761  0.772289253148364
  0.005049153450479  0.252041949021020  0.252041949021020  0.934317778845812
  0.003976408018052  0.698190665844724  0.698190665844724  0.158302205463478
  0.004401400650381  0.658740524346096  0.658740524346096  0.363485684956727
  0.017245443505444  0.040385440500977  0.040385440500977  0.998367683967727
  0.004231083095357  0.582384230971558  0.000000000000000  0.812913653173365
  0.005198069864064  0.354587739051869  0.000000000000000  0.935022745880593
  0.004695720972569  0.227218180899819  0.486466153588665  0.843636521068894
   total no. of   reducible points: 230; test:  1.00000000
 -0.001313769127327  1.000000000000000  0.000000000000000  0.000000000000000
 -0.002522728704859  0.707106781186547  0.707106781186547  0.000000000000000
  0.004186853881701  0.577350269189626  0.577350269189626  0.577350269189626
  0.005315167977811  0.703937339158548  0.703937339158548  0.094575076403713
  0.004047142377086  0.101252624857241  0.101252624857241  0.989694807462905
  0.004112482394407  0.464744872642054  0.464744872642054  0.753673939250816
  0.003595584899759  0.327742065497163  0.327742065497163  0.886098344997499
  0.004256131351428  0.662033866369997  0.662033866369997  0.351315128564633
  0.004229582700647  0.850650808352040  0.000000000000000  0.525731112119134
  0.004080914225781  0.323348454269290  0.115311201100970  0.939227929749916
  0.004071467593831  0.231479015871260  0.524493924092236  0.819343388819120
   total no. of   reducible points: 266; test:  1.00000000
  0.000854591172513  1.000000000000000  0.000000000000000  0.000000000000000
  0.003599119285026  0.577350269189626  0.577350269189626  0.577350269189626
  0.003449788424306  0.351564034557011  0.351564034557011  0.867643624544083
  0.003604822601420  0.656632941021961  0.656632941021961  0.371034178384821
  0.003576729661743  0.472905413258100  0.472905413258100  0.743452042987556
  0.002352101413689  0.096183085226148  0.096183085226148  0.990705621379408
  0.003108953122414  0.221964523629418  0.221964523629418  0.949454317226443
  0.003650045807677  0.701176641608955  0.701176641608955  0.129238672710514
  0.002982344963172  0.264415288706066  0.000000000000000  0.964408914879206
  0.003600820932216  0.571895589187896  0.000000000000000  0.820326419827759
  0.003571540554273  0.251003475177047  0.800072749407395  0.544867737258077
  0.003392312205006  0.123354853258333  0.412772408316853  0.902442529533000
   total no. of   reducible points: 302; test:  1.00000000
  0.003006796749454  1.000000000000000  0.000000000000000  0.000000000000000
  0.003050627745651  0.577350269189626  0.577350269189626  0.577350269189626
  0.001621104600289  0.706896546391232  0.706896546391232  0.024383301669356
  0.003005701484902  0.479468262571203  0.479468262571203  0.734996850587746
  0.002990992529654  0.192753315487802  0.192753315487802  0.962129055136014
  0.002982170644108  0.693035796132712  0.693035796132712  0.198501311223365
  0.002721564237311  0.360830211552009  0.360830211552009  0.860001812127547
  0.003033513795811  0.649848616149617  0.649848616149617  0.394199888605839
  0.003007949555219  0.193294501323034  0.000000000000000  0.981140782843257
  0.002881964603055  0.380049491989930  0.000000000000000  0.924966152698679
  0.002958357626536  0.289955882549957  0.793453785658232  0.535123047718276
  0.003036020026407  0.096841214551040  0.828080150668686  0.552182074349399
  0.002832187403926  0.183343464704166  0.907465826530513  0.378009189874487
   total no. of   reducible points: 350; test:  1.00000000
  0.000526589796822  1.000000000000000  0.000000000000000  0.000000000000000
  0.002548219972003  0.707106781186547  0.707106781186547  0.000000000000000
  0.002512317418927  0.577350269189626  0.577350269189626  0.577350269189626
  0.002530403801186  0.690934630750911  0.690934630750911  0.212646824707552
  0.002014279020919  0.177483605460916  0.177483605460916  0.967987158791473
  0.002501725168403  0.491434263778475  0.491434263778475  0.719016501040843
  0.002513267174598  0.645666470742426  0.645666470742426  0.407712664897770
  0.002302694782227  0.286128901030764  0.286128901030764  0.914472801120872
  0.001462495621595  0.075680843671780  0.075680843671780  0.994255912631278
  0.002445373437313  0.392725976336800  0.392725976336800  0.831584400419232
  0.002417442375639  0.881813287779429  0.000000000000000  0.471598691151316
  0.001910951282180  0.977642811118265  0.000000000000000  0.210272522857307
  0.002416930044325  0.205482369640304  0.868946032287241  0.450233038258263
  0.002512236854563  0.590515704892527  0.799927854385729  0.106801826075805
  0.002496644054553  0.555015236107681  0.771746262691590  0.310428403516654
  0.002236607760438  0.937180985855372  0.334436314534346  0.099217696364292
   total no. of   reducible points: 434; test:  1.00000000
  0.000309512129531  1.000000000000000  0.000000000000000  0.000000000000000
  0.001852379698597  0.577350269189626  0.577350269189626  0.577350269189626
  0.001871790639278  0.704095493822747  0.704095493822747  0.092190407076898
  0.001858812585438  0.680774406645524  0.680774406645524  0.270356088359165
  0.001852028828296  0.637254693925875  0.637254693925875  0.433373868777154
  0.001846715956151  0.504441970780036  0.504441970780036  0.700768575373573
  0.001818471778163  0.421576178401097  0.421576178401097  0.802836877335274
  0.001749564657281  0.331792073647212  0.331792073647212  0.883078727934133
  0.001617210647254  0.238473670142189  0.238473670142189  0.941414158220403
  0.001384737234852  0.145903644915776  0.145903644915776  0.978480583762694
  0.000976433116505  0.060950341155072  0.060950341155072  0.996278129754016
  0.001857161196774  0.611684344200988  0.000000000000000  0.791101929626902
  0.001705153996396  0.396475534819986  0.000000000000000  0.918045287711454
  0.001300321685886  0.172478200990772  0.000000000000000  0.985013335028002
  0.001842866472905  0.561026380862206  0.351828092773352  0.749310611904116
  0.001802658934377  0.474239284255198  0.263471665593795  0.840047488359050
  0.001849830560444  0.598412649788538  0.181664084036021  0.780320742479920
  0.001713904507107  0.379103540769556  0.172079522565688  0.909213475092374
  0.001555213603397  0.277867319058624  0.082130215819325  0.957102074310073
  0.001802239128009  0.503356427107512  0.089992058420749  0.859379855890721
   total no. of   reducible points: 590; test:  1.00000000
  0.000219294208818  1.000000000000000  0.000000000000000  0.000000000000000
  0.001436433617319  0.707106781186547  0.707106781186547  0.000000000000000
  0.001421940344336  0.577350269189626  0.577350269189626  0.577350269189626
  0.000679812351105  0.050872044105024  0.050872044105024  0.997408677652823
  0.000991318423529  0.122819879017883  0.122819879017883  0.984799753572301
  0.001180207833239  0.202689081440879  0.202689081440879  0.958036675983391
  0.001296599602081  0.284774515646429  0.284774515646429  0.915317950483155
  0.001365871427428  0.365671907897803  0.365671907897803  0.855901928697887
  0.001402988604775  0.442826488671347  0.442826488671347  0.779621319527635
  0.001418645563596  0.514061962724974  0.514061962724974  0.686644447264154
  0.001421376741852  0.630640121916680  0.630640121916680  0.452311920313658
  0.001423996475491  0.671688333202261  0.671688333202261  0.312521305001653
  0.001431554042179  0.697979268533688  0.697979268533688  0.160155803498829
  0.000925440149987  0.144686567419531  0.000000000000000  0.989477537495599
  0.001250239995054  0.339026347541122  0.000000000000000  0.940776878793759
  0.001394365843329  0.533580465126351  0.000000000000000  0.845749305193653
  0.001127089094672  0.069440243933494  0.235518789424233  0.969385863498432
  0.001345753760911  0.226900410952946  0.410218247404573  0.883310360522113
  0.001424957283317  0.080255746077753  0.621430241748161  0.779348105702661
  0.001261523341238  0.146799952789657  0.324528434571739  0.934414827052402
  0.001392547106053  0.157150776982473  0.522448218969663  0.838064133458312
  0.001418761677878  0.236570299315725  0.601754663408956  0.762840624604670
  0.001338366684480  0.077148158667657  0.434657551614116  0.897285336132833
  0.001393700862676  0.306293666621073  0.490882658903762  0.815609223203975
  0.001415914757467  0.382247737952479  0.564876814909950  0.731300793659766
   total no. of   reducible points: 770; test:  1.00000000
  0.000143829419053  1.000000000000000  0.000000000000000  0.000000000000000
  0.001125772288287  0.577350269189626  0.577350269189626  0.577350269189626
  0.000494802934195  0.042929635453413  0.042929635453413  0.998155345023847
  0.000735799010913  0.105142685408640  0.105142685408640  0.988883224354686
  0.000888913277130  0.175002486762309  0.175002486762309  0.968890220434707
  0.000988834783892  0.247765337965026  0.247765337965026  0.936602730407163
  0.001053299681709  0.320656712395596  0.320656712395596  0.891267942647606
  0.001092778807015  0.391652074984998  0.391652074984998  0.832596723702352
  0.001114389394063  0.459082587418762  0.459082587418762  0.760582905315251
  0.001123724788052  0.521456388841586  0.521456388841586  0.675400969108414
  0.001125239325244  0.625317024465420  0.625317024465420  0.466858905695743
  0.001126153271816  0.663792674452317  0.663792674452317  0.344613654237438
  0.001130286931124  0.691041039849830  0.691041039849830  0.211954151850184
  0.001134986534364  0.705290700745776  0.705290700745776  0.071624401449956
  0.000682336792711  0.123668676265799  0.000000000000000  0.992323565431490
  0.000945415816045  0.294077711446839  0.000000000000000  0.955781512496548
  0.001074429975386  0.469775384920765  0.000000000000000  0.882785980701182
  0.001129300086569  0.633456324113957  0.000000000000000  0.773778447257375
  0.000843688450090  0.059740486141813  0.202912875277752  0.977372722845310
  0.001075255720449  0.137576040847364  0.460262194248405  0.877058461865803
  0.001108577236864  0.339101652633629  0.503067399966204  0.794942299964208
  0.000956647532378  0.127167519143982  0.281760642244213  0.951020169374390
  0.001080663250717  0.269312074041351  0.433156129172016  0.860143461601762
  0.001126797131196  0.141978645260192  0.625616735858081  0.767102186220558
  0.001022568715358  0.067092846007383  0.379839521685916  0.922616110730809
  0.001108960267713  0.070577381832562  0.551750542142352  0.831017552413474
  0.001122790653436  0.278388847788215  0.602961915615919  0.747620610834086
  0.001032401847117  0.197957893891741  0.358960632958910  0.912118378409121
  0.001107249382284  0.208730706110327  0.534866643813548  0.818748536281022
  0.001121780048520  0.405512213787284  0.567499754607437  0.716591845467024
   total no. of   reducible points: 974; test:  1.00000000
  qrot: 

              1        2        3      
    1    1.0000   0.0000   0.0000
    2    0.0000   1.0000   0.0000
    3    0.0000   0.0000   1.0000
  me                     0   done genpts
  me                     1   done genpts
  me                     2   done genpts
  me                     4   done genpts
  me                     5   done genpts
  me                     6   done genpts
  me                     7   done genpts
  me                     3   done genpts
  me                     0   done uprt
  me                     1   done uprt
  me                     2   done uprt
  me                     3   done uprt
  me                     4   done uprt
  me                     5   done uprt
  me                     6   done uprt
  me                     7   done uprt
  me                     0  done mem
  me                     1  done mem
  me                     2  done mem
  me                     3  done mem
  me                     4  done mem
  me                     5  done mem
  me                     6  done mem
  me                     7  done mem
  dftinpanae: itol2e                     8  iaoacc                    14  tol_rho    1.0000000000000000E-010

            General Information
            -------------------
          SCF calculation type: DFT
          Wavefunction type:  spin polarized.
          No. of atoms     :     1
          No. of electrons :    35
           Alpha electrons :    18
            Beta electrons :    17
          Charge           :     0
          Spin multiplicity:     2
          Use of symmetry is: off; symmetry adaption is: off
          Maximum number of iterations:  50
          AO basis - number of functions:    69
                     number of shells:    19
          Convergence on energy requested:  1.00D-06
          Convergence on density requested:  1.00D-05
          Convergence on gradient requested:  5.00D-04

              XC Information
              --------------
                     Hartree-Fock (Exact) Exchange  1.000          
                     LC-wPBE(h)Exchange Functional  1.000          
            Perdew 1991 LDA Correlation Functional  1.000 local    
           PerdewBurkeErnz. Correlation Functional  1.000 non-local

           Range-Separation Parameters        
           ---------------------------
           Alpha           :  0.00
           Beta            :  1.00
           Gamma           :  0.28
           Short-Range HF  :     F

             Grid Information
             ----------------
          Grid used for XC integration:  fine      
          Radial quadrature: Mura-Knowles        
          Angular quadrature: Lebedev. 
          Tag              B.-S. Rad. Rad. Pts. Rad. Cut. Ang. Pts.
          ---              ---------- --------- --------- ---------
          Br                  1.15      140          10.0       974
          Grid pruning is: on 
          Number of quadrature shells:   140
          Spatial weights used:  Erf1

          Convergence Information
          -----------------------
          Convergence aids based upon iterative change in 
          total energy or number of iterations. 
          Levelshifting, if invoked, occurs when the 
          HOMO/LUMO gap drops below (HL_TOL):  1.00D-02
          DIIS, if invoked, will attempt to extrapolate 
          using up to (NFOCK): 10 stored Fock matrices.

                    Damping( 0%)  Levelshifting(0.5)       DIIS
                  --------------- ------------------- ---------------
          dE  on:    start            ASAP                start   
          dE off:    2 iters         50 iters            50 iters 


      Screening Tolerance Information
      -------------------------------
          Density screening/tol_rho:  1.00D-10
          AO Gaussian exp screening on grid/accAOfunc:  14
          CD Gaussian exp screening on grid/accCDfunc:  20
          XC Gaussian exp screening on grid/accXCfunc:  20
          Schwarz screening/accCoul:  1.00D-08



                         Geometry "geometry" -> "geometry"
                         ---------------------------------

 Output coordinates in angstroms (scale by  1.889725989 to convert to a.u.)

  No.       Tag          Charge          X              Y              Z
 ---- ---------------- ---------- -------------- -------------- --------------
    1 Br                  35.0000     0.00000000     0.00000000     0.00000000

      Atomic Mass 
      ----------- 

      Br                79.916500


 Effective nuclear repulsion energy (a.u.)       0.0000000000

            Nuclear Dipole moment (a.u.) 
            ----------------------------
        X                 Y               Z
 ---------------- ---------------- ----------------
     0.0000000000     0.0000000000     0.0000000000

  
  CAM type calculations without CDFIT are
  only available with the direct option.
  Forcing Direct SCF
  


     <<<<<<    Before call to DFT_SCF.    >>>>>>
     <<<<<< date:  May  8  time: 11:47:30 >>>>>>


 Setting tolerance for linear dependence to 1.00D-05






 Setting tolerance for linear dependence to 1.00D-05

 Setting tolerance for linear dependence to 1.00D-05
 Setting tolerance for linear dependence to 1.00D-05
 Setting tolerance for linear dependence to 1.00D-05
 Setting tolerance for linear dependence to 1.00D-05
 Setting tolerance for linear dependence to 1.00D-05
 Setting tolerance for linear dependence to 1.00D-05
  lindep tolerance =    1.0000000000000001E-005
  lindep tolerance =    1.0000000000000001E-005
  lindep tolerance =    1.0000000000000001E-005
  lindep tolerance =    1.0000000000000001E-005
  lindep tolerance =    1.0000000000000001E-005
  lindep tolerance =    1.0000000000000001E-005
  lindep tolerance =    1.0000000000000001E-005
  lindep tolerance =    1.0000000000000001E-005


     <<<<<<    Before 3c-2e initialize.   >>>>>>
     <<<<<< date:  May  8  time: 11:47:30 >>>>>>


 Setting fock-build task_bf   :      -1
                    maxquartet:   10000
                    maxeri    :  129600
                    maxscr    :       0
                    intacc    : 0.0D+00
                    denscreen : T
                    dentol    : 1.0D-06


      Superposition of Atomic Density Guess
      -------------------------------------

 Sum of atomic energies:       -2572.44605052

      Non-variational initial energy
      ------------------------------

 Total energy =   -2572.267084
 1-e energy   =   -3581.986905
 2-e energy   =    1009.719821
 HOMO         =      -0.388322
 LUMO         =       0.065733


 Setting fock-build task_bf   :      -1
                    maxquartet:   10000
                    maxeri    :  129600
                    maxscr    :       0
                    intacc    : 0.0D+00
                    denscreen : T
                    dentol    : 1.0D-06


 Wrote molecular orbitals to ./br.movecs

  WARNING: movecs_in_org=atomic not equal to movecs_in=./br.movecs
   Time after variat. SCF:      6.9

 Setting fock-build task_bf   :      -1
                    maxquartet:   10000
                    maxeri    :  129600
                    maxscr    :       0
                    intacc    : 0.0D+00
                    denscreen : T
                    dentol    : 1.0D-06

   Time prior to 1st pass:      6.9


     <<<<<<      Before SCF iter loop.    >>>>>>
     <<<<<< date:  May  8  time: 11:47:36 >>>>>>

           DAMPING=T LEVELSHIFTING=F DIISING=T
          itol2e= 8 iAOacc=12 iXCacc=20


     <<<<<<            calling 1-e int    >>>>>>
     <<<<<< date:  May  8  time: 11:47:36 >>>>>>

    Kinetic Matrix Time:          0.0s

           Kinetic energy =   2572.055107786795

    Potential Matrix Time:          0.0s


     <<<<<<    Before call to GETVXC.     >>>>>>
     <<<<<< date:  May  8  time: 11:47:36 >>>>>>



     <<<<<<    Before call to fock_2e.    >>>>>>
     <<<<<< date:  May  8  time: 11:47:36 >>>>>>



     <<<<<<     After call to fock_2e.    >>>>>>
     <<<<<< date:  May  8  time: 11:47:38 >>>>>>

    Fock_2e Build Time:          2.0s
  *** grid_quadv0:                    calc_type:                    1
  *** grid_quadv0:                    grid_written: F
  *** grid_quadv0:                    grad: T
  *** grid_quadv0:                    kske: F
  *** grid_quadv0:                    kslap: F
  *** grid_quadv0:                    do_scf: T
  *** grid_quadv0:                    fde_option:                    0
  *** grid_quadv0:                    n_per_rec:                 3070
  *** grid_quadv0:                    calc_type:                    1
  *** grid_quadv0:                    grid_written: F
  *** grid_quadv0:                    grad: T
  *** grid_quadv0:                    kske: F
  *** grid_quadv0:                    kslap: F
  *** grid_quadv0:                    do_scf: T
  *** grid_quadv0:                    calc_type:                    1
  *** grid_quadv0:                    grid_written: F
  *** grid_quadv0:                    grad: T
  *** grid_quadv0:                    kske: F
  *** grid_quadv0:                    kslap: F
  *** grid_quadv0:                    do_scf: T
  *** grid_quadv0:                    fde_option:                    0
  *** grid_quadv0:                    n_per_rec:                 3070
  *** grid_quadv0:                    calc_type:                    1
  *** grid_quadv0:                    grid_written: F
  *** grid_quadv0:                    grad: T
  *** grid_quadv0:                    kske: F
  *** grid_quadv0:                    kslap: F
  *** grid_quadv0:                    do_scf: T
  *** grid_quadv0:                    fde_option:                    0
  *** grid_quadv0:                    n_per_rec:                 3070
  *** grid_quadv0:                    calc_type:                    1
  *** grid_quadv0:                    grid_written: F
  *** grid_quadv0:                    grad: T
  *** grid_quadv0:                    kske: F
  *** grid_quadv0:                    kslap: F
  *** grid_quadv0:                    do_scf: T
  *** grid_quadv0:                    fde_option:                    0
  *** grid_quadv0:                    n_per_rec:                 3070
  *** grid_quadv0:                    calc_type:                    1
  *** grid_quadv0:                    grid_written: F
  *** grid_quadv0:                    grad: T
  *** grid_quadv0:                    kske: F
  *** grid_quadv0:                    kslap: F
  *** grid_quadv0:                    do_scf: T
  *** grid_quadv0:                    fde_option:                    0
  *** grid_quadv0:                    n_per_rec:                 3070
  *** grid_quadv0:                    calc_type:                    1
  *** grid_quadv0:                    grid_written: F
  *** grid_quadv0:                    grad: T
  *** grid_quadv0:                    kske: F
  *** grid_quadv0:                    kslap: F
  *** grid_quadv0:                    do_scf: T
  *** grid_quadv0:                    fde_option:                    0
  *** grid_quadv0:                    n_per_rec:                 3070
  *** grid_quadv0:                    calc_type:                    1
  *** grid_quadv0:                    grid_written: F
  *** grid_quadv0:                    grad: T
  *** grid_quadv0:                    kske: F
  *** grid_quadv0:                    kslap: F
  *** grid_quadv0:                    do_scf: T
  *** grid_quadv0:                    fde_option:                    0
  *** grid_quadv0:                    n_per_rec:                 3070
  *** grid_quadv0:                    fde_option:                    0
  *** grid_quadv0:                    n_per_rec:                 3070
   0: nuse=   8 avail= 12500000Mb on .
   1: nuse=   8 avail= 12500000Mb on .
   3: nuse=   8 avail= 12500000Mb on .
   5: nuse=   8 avail= 12500000Mb on .
   2: nuse=   8 avail= 12500000Mb on .
   4: nuse=   8 avail= 12500000Mb on .
   6: nuse=   8 avail= 12500000Mb on .
   7: nuse=   8 avail= 12500000Mb on .
 l_cube input   11.00

  atom type   l_cube   no. cubes   segmts   rad   sub
 ----------- -------- ----------- -------- ----- -----
        1     12.00        34         3      18     8

 Grid_pts file          = ./br.gridpts.0
 Record size in doubles =  12289        No. of grid_pts per rec  =   3070
 Max. records in memory =      8        Max. recs in file   = 126656358

 me   0 NQTOTC NQ/cube   11623     774
 me   1 NQTOTC NQ/cube    7155    1788
 me   2 NQTOTC NQ/cube    7320    7320
 me   3 NQTOTC NQ/cube    6772    2257
 me   4 NQTOTC NQ/cube    6280    2093
 me   5 NQTOTC NQ/cube    6618    3309
 me   6 NQTOTC NQ/cube    7001    2333
 me   7 NQTOTC NQ/cube    5795    1931

 XC quadr. integrated density :      35.000000 npts:    58441 nctrs:        1

    Fock_xc Build Time:          0.1s


     <<<<<<    Before call to GETVCOUL.   >>>>>>
     <<<<<< date:  May  8  time: 11:47:39 >>>>>>



     <<<<<<    End of parallel region.    >>>>>>
     <<<<<< date:  May  8  time: 11:47:39 >>>>>>

    Total Fock Matrix Build Time:          2.1s
 Etnew, Ecore, Ecoul, Exc(1), Exc(2), Totsic:   -2573.7870273019712       -3580.9608395395207        1098.1332890911222       -90.959476853572653        0.0000000000000000        0.0000000000000000     
  delta =   -2573.7870273019712     
  delta =   -2573.7870273019712     
  delta =   -2573.7870273019712     


         Total DFT energy =    -2573.787027301971
      One electron energy =    -3580.960839539521
           Coulomb energy =     1098.133289091122
  delta =   -2573.7870273019712     
  delta =   -2573.7870273019712     
  delta =   -2573.7870273019712     
  delta =   -2573.7870273019712     
  delta =   -2573.7870273019712     
    Exchange-Corr. energy =      -90.959476853573
 Nuclear repulsion energy =        0.000000000000

 Numeric. integr. density =       34.999999999796

     Total iterative time =     10.0s




     <<<<<<        calling diis driver    >>>>>>
     <<<<<< date:  May  8  time: 11:47:39 >>>>>>

 nhist                     1  pulay matrix 
   0.0000E+00
  -1.0000E+00   9.4855E-01


     <<<<<<         called diis driver    >>>>>>
     <<<<<< date:  May  8  time: 11:47:39 >>>>>>


 global array: fock transf[1:69,1:69],  handle: -940 

            1           2           3           4           5           6  
       ----------- ----------- ----------- ----------- ----------- -----------
   1       6.61570     0.00000     0.00000    -0.00000    -7.59815     3.47860
   2       0.00000     3.54141     0.00650     0.00969     0.00000     0.00000
   3       0.00000     0.00650     3.55306    -0.00432     0.00000     0.00000
   4      -0.00000     0.00969    -0.00432     3.54952    -0.00000    -0.00000
   5      -7.59815     0.00000     0.00000    -0.00000    32.33289   -35.08684
   6       3.47860     0.00000     0.00000    -0.00000   -35.08684    49.44006
   7      -0.00000     0.74280     0.10629    -0.75854    -0.00000    -0.00000
   8      -0.00000    -0.09239     1.06937     0.04477    -0.00000    -0.00000
   9       0.00000     0.76411     0.03646     0.75789     0.00000     0.00000
  10       0.25089     0.00000     0.00000    -0.00000     0.08703    -1.26262
  11       0.00000     0.00210    -0.00189    -0.00267     0.00000    -0.00000
  12       0.22805    -0.00000    -0.00000     0.00000     0.13917    -0.40991
  13      -0.00000     0.00057     0.00292    -0.00193     0.00000     0.00000
  14      -0.00000     0.00162    -0.00154     0.00191    -0.00000    -0.00000
  15      -0.00000     0.00283     0.00084     0.00065     0.00000     0.00000
  16       0.00015    -0.00000    -0.00000    -0.00000    -0.00019    -0.00014
  17       0.00362     0.00000     0.00000     0.00000    -0.00450    -0.00331
  18       0.00170     0.00000    -0.00000    -0.00000    -0.00211    -0.00155
  19      -0.00000     0.00733    -0.01441    -0.10221    -0.00000    -0.00000
  20       0.00000    -0.09452    -0.03445     0.00056     0.00000     0.00000
  21       0.00000     0.03603    -0.09530     0.01392     0.00000     0.00000
  22       0.00039     0.00000     0.00000    -0.00000    -0.00049    -0.00036
  23      -0.00096     0.00000     0.00000    -0.00000     0.00120     0.00088
  24      -0.00000     0.46794     0.16209     0.10087    -0.00000    -0.00000
  25      -0.00000    -0.07149    -0.09432     0.49234    -0.00000    -0.00000
  26       0.00000     0.17428    -0.47078    -0.06286     0.00000     0.00000
  27       0.00000     0.00073    -0.00060    -0.00086    -0.00000    -0.00000
  28      -0.00093     0.00000    -0.00000    -0.00000     0.00074     0.00058
  29       0.00106    -0.00000     0.00000     0.00000    -0.00084    -0.00065
  30       0.00026    -0.00000    -0.00000    -0.00000    -0.00020    -0.00016
  31      -0.00000    -0.00057     0.00033    -0.00043    -0.00000    -0.00000
  32      -0.00000     0.00011    -0.00061     0.00050    -0.00000    -0.00000
  33      -0.00000     0.00065     0.00048    -0.00017    -0.00000     0.00000
  34       0.00000     0.01969     0.08368    -0.01933     0.00000     0.00000
  35      -0.00000     0.01612     0.01567     0.08515    -0.00000    -0.00000
  36       0.00000     0.08293    -0.02261    -0.01112     0.00000     0.00000
  37       0.09739    -0.00000    -0.00000     0.00000    -0.07712    -0.41224
  38      -0.00027    -0.00000    -0.00000    -0.00000     0.00021     0.00022
  39       0.00067    -0.00000    -0.00000    -0.00000    -0.00053    -0.00054
  40       0.00042    -0.00000     0.00000     0.00000    -0.00033    -0.00034
  41      -0.00009    -0.00000    -0.00000     0.00000     0.00007     0.00006
  42      -0.00036    -0.00000    -0.00000     0.00000     0.00029     0.00022
  43       0.00000     0.00719     0.00422    -0.00352     0.00000     0.00000
  44       0.00000    -0.00552    -0.00064    -0.00944     0.00000     0.00000
  45       0.00000    -0.00152     0.00969    -0.00034     0.00000     0.00000
  46      -0.00021     0.00000     0.00000     0.00000     0.00021     0.00010
  47      -0.00016    -0.00000     0.00000     0.00000     0.00016     0.00008
  48      -0.00022     0.00000    -0.00000    -0.00000     0.00022     0.00010
  49      -0.00019    -0.00000    -0.00000     0.00000     0.00015     0.00016
  50       0.00010     0.00000     0.00000    -0.00000    -0.00008    -0.00008
  51       0.10472     0.00000     0.00000    -0.00000    -0.39465     0.29160
  52       0.00000     0.01685    -0.01413    -0.00325     0.00000     0.00000
  53       0.00000     0.01431     0.01712    -0.00001     0.00000     0.00000
  54      -0.00000     0.00258    -0.00212     0.02205    -0.00000    -0.00000
  55      -0.00378     0.00000     0.00000    -0.00000    -0.21692     0.40904
  56      -0.00000    -0.02958     0.00150    -0.04742    -0.00000    -0.00000
  57       0.00000    -0.01333     0.05180     0.00988     0.00000     0.00000
  58       0.00000    -0.04257    -0.01984     0.02595     0.00000     0.00000
  59       0.00005     0.00000     0.00000    -0.00000    -0.00005    -0.00002
  60       0.00007    -0.00000    -0.00000     0.00000    -0.00007    -0.00003
  61       0.00000    -0.06877    -0.01515     0.01553     0.00000     0.00000
  62       0.00000     0.02153    -0.04039     0.05608     0.00000     0.00000
  63      -0.00000     0.00272    -0.05807    -0.04289    -0.00000    -0.00000
  64       0.05012     0.00000     0.00000    -0.00000     0.17098    -0.32213
  65      -0.12759    -0.00000    -0.00000     0.00000     0.69699    -0.76738
  66       0.00000    -0.00629     0.03774     0.00232     0.00000     0.00000
  67       0.00000    -0.01651    -0.00028    -0.03517     0.00000     0.00000
  68      -0.00000    -0.03329    -0.00830     0.01510    -0.00000    -0.00000
  69      -0.06776     0.00000     0.00000    -0.00000     0.20778    -0.17616

            7           8           9          10          11          12  
       ----------- ----------- ----------- ----------- ----------- -----------
   1      -0.00000    -0.00000     0.00000     0.25089     0.00000     0.22805
   2       0.74280    -0.09239     0.76411     0.00000     0.00210    -0.00000
   3       0.10629     1.06937     0.03646     0.00000    -0.00189    -0.00000
   4      -0.75854     0.04477     0.75789    -0.00000    -0.00267     0.00000
   5      -0.00000    -0.00000     0.00000     0.08703     0.00000     0.13917
   6      -0.00000    -0.00000     0.00000    -1.26262    -0.00000    -0.40991
   7       1.76939     0.00862    -0.00238    -0.00000     0.00857     0.00000
   8       0.00862     1.78133     0.00185    -0.00000    -0.00592     0.00000
   9      -0.00238     0.00185     1.78586     0.00000    -0.00124    -0.00000
  10      -0.00000    -0.00000     0.00000     2.05661     0.00000     1.89192
  11       0.00857    -0.00592    -0.00124     0.00000     1.77884    -0.00000
  12       0.00000     0.00000    -0.00000     1.89192    -0.00000     2.73101
  13       0.00261     0.00306    -0.00132     0.00000     0.00002    -0.00000
  14      -0.00072    -0.00320     0.00327    -0.00000     0.00003     0.00000
  15       0.00272     0.00034     0.00218    -0.00000     0.00007     0.00000
  16       0.00000     0.00000     0.00000     0.00022     0.00000    -0.00010
  17      -0.00000     0.00000    -0.00000     0.00515     0.00000    -0.00229
  18      -0.00000     0.00000    -0.00000     0.00241    -0.00000    -0.00107
  19      -0.32646     0.08097     0.29887    -0.00000    -0.01306     0.00000
  20       0.30727     0.12092     0.30945     0.00000     0.00560    -0.00000
  21      -0.01998     0.42705    -0.14295     0.00000    -0.00906    -0.00000
  22      -0.00000    -0.00000     0.00000     0.00056     0.00000    -0.00025
  23      -0.00000    -0.00000     0.00000    -0.00137     0.00000     0.00061
  24       0.51682     0.23830     0.78448    -0.00000    -0.00089     0.00000
  25      -0.78062    -0.12702     0.56027    -0.00000     0.00268     0.00000
  26       0.23020    -0.93202     0.12262     0.00000    -0.00297    -0.00000
  27       0.00300    -0.00203    -0.00036    -0.00000     0.47459     0.00000
  28      -0.00000     0.00000    -0.00000    -0.00299    -0.00000    -0.00514
  29       0.00000    -0.00000     0.00000     0.00339    -0.00000     0.00582
  30       0.00000     0.00000     0.00000     0.00083     0.00000     0.00142
  31      -0.00007     0.00095    -0.00112    -0.00000     0.00004     0.00000
  32      -0.00050    -0.00091     0.00065     0.00000    -0.00000    -0.00000
  33       0.00121     0.00057     0.00029     0.00000    -0.00005    -0.00000
  34       0.03332     0.07501     0.00331     0.00000     0.00033    -0.00000
  35      -0.04306     0.01615     0.06720    -0.00000     0.00118     0.00000
  36       0.05749    -0.02708     0.04714     0.00000    -0.00140    -0.00000
  37       0.00000     0.00000    -0.00000     0.30479    -0.00000    -0.21035
  38       0.00000     0.00000     0.00000     0.00014     0.00000     0.00075
  39       0.00000     0.00000     0.00000    -0.00036    -0.00000    -0.00188
  40       0.00000    -0.00000     0.00000    -0.00023     0.00000    -0.00118
  41       0.00000     0.00000    -0.00000    -0.00029     0.00000    -0.00050
  42       0.00000     0.00000    -0.00000    -0.00116     0.00000    -0.00199
  43       0.06877     0.01799     0.02258     0.00000     0.00746    -0.00000
  44       0.02167    -0.00505    -0.07482     0.00000     0.00476    -0.00000
  45      -0.00869     0.07394    -0.00905     0.00000    -0.00802    -0.00000
  46      -0.00000    -0.00000    -0.00000     0.00121     0.00000     0.00252
  47       0.00000    -0.00000     0.00000     0.00096     0.00000     0.00201
  48      -0.00000     0.00000    -0.00000     0.00130     0.00000     0.00272
  49       0.00000     0.00000    -0.00000     0.00010    -0.00000     0.00054
  50      -0.00000    -0.00000     0.00000    -0.00005     0.00000    -0.00028
  51      -0.00000    -0.00000     0.00000    -0.82306    -0.00000    -1.77063
  52      -0.01719     0.02090    -0.01225     0.00000    -0.00023    -0.00000
  53      -0.01542    -0.02067    -0.01417     0.00000     0.00001    -0.00000
  54       0.01867     0.00170    -0.02267    -0.00000     0.00016     0.00000
  55      -0.00000    -0.00000     0.00000    -0.82410    -0.00000    -1.52055
  56       0.02273     0.00363    -0.09886    -0.00000     0.00270     0.00000
  57      -0.01983     0.09551    -0.00152     0.00000    -0.00699    -0.00000
  58      -0.09052    -0.02733    -0.02422     0.00000    -0.00570    -0.00000
  59      -0.00000    -0.00000     0.00000    -0.00031     0.00000    -0.00064
  60       0.00000     0.00000    -0.00000    -0.00042    -0.00000    -0.00089
  61      -0.02484    -0.00423    -0.01700     0.00000    -0.00457    -0.00000
  62      -0.01150    -0.01634     0.02229     0.00000    -0.00082    -0.00000
  63       0.00977    -0.02423    -0.01278    -0.00000     0.00670     0.00000
  64      -0.00000    -0.00000     0.00000     0.39868     0.00000     0.73604
  65       0.00000     0.00000    -0.00000     0.59578    -0.00000     1.20868
  66      -0.00210     0.05115    -0.00195     0.00000    -0.00406    -0.00000
  67       0.01742    -0.00033    -0.04977     0.00000     0.00256    -0.00000
  68      -0.04575    -0.00731    -0.01846    -0.00000    -0.00440     0.00000
  69      -0.00000    -0.00000     0.00000     0.06713    -0.00000     0.20359

           13          14          15          16          17          18  
       ----------- ----------- ----------- ----------- ----------- -----------
   1      -0.00000    -0.00000    -0.00000     0.00015     0.00362     0.00170
   2       0.00057     0.00162     0.00283    -0.00000     0.00000     0.00000
   3       0.00292    -0.00154     0.00084    -0.00000     0.00000    -0.00000
   4      -0.00193     0.00191     0.00065    -0.00000     0.00000    -0.00000
   5       0.00000    -0.00000     0.00000    -0.00019    -0.00450    -0.00211
   6       0.00000    -0.00000     0.00000    -0.00014    -0.00331    -0.00155
   7       0.00261    -0.00072     0.00272     0.00000    -0.00000    -0.00000
   8       0.00306    -0.00320     0.00034     0.00000     0.00000     0.00000
   9      -0.00132     0.00327     0.00218     0.00000    -0.00000    -0.00000
  10       0.00000    -0.00000    -0.00000     0.00022     0.00515     0.00241
  11       0.00002     0.00003     0.00007     0.00000     0.00000    -0.00000
  12      -0.00000     0.00000     0.00000    -0.00010    -0.00229    -0.00107
  13       1.77607     0.01231    -0.00711    -0.00000     0.00000     0.00000
  14       0.01231     1.78238    -0.00964    -0.00000    -0.00000    -0.00000
  15      -0.00711    -0.00964     1.77769     0.00000    -0.00000    -0.00000
  16      -0.00000    -0.00000     0.00000     1.56457    -0.00281     0.00196
  17       0.00000    -0.00000    -0.00000    -0.00281     1.55130    -0.00918
  18       0.00000    -0.00000    -0.00000     0.00196    -0.00918     1.56140
  19      -0.00008    -0.00059    -0.00451    -0.00000    -0.00000    -0.00000
  20      -0.00163    -0.00164    -0.00237    -0.00000     0.00000     0.00000
  21      -0.00262    -0.00272    -0.00039    -0.00000    -0.00000    -0.00000
  22       0.00000    -0.00000     0.00000     0.00978    -0.00013    -0.00259
  23      -0.00000     0.00000    -0.00000    -0.00006     0.00601    -0.00683
  24       0.00123     0.00145     0.00306    -0.00000     0.00000     0.00000
  25      -0.00192     0.00101     0.00148     0.00000    -0.00000     0.00000
  26      -0.00240     0.00002    -0.00055     0.00000     0.00000     0.00000
  27      -0.00002    -0.00003    -0.00005    -0.00000    -0.00000     0.00000
  28       0.00000    -0.00000    -0.00000     0.06172    -0.14779    -0.52121
  29      -0.00000     0.00000     0.00000     0.20537     0.49027    -0.12071
  30      -0.00000    -0.00000     0.00000    -0.50436     0.18344    -0.11425
  31      -0.04094    -0.46582    -0.08538    -0.00000    -0.00000    -0.00000
  32      -0.44708    -0.00112     0.16161    -0.00000     0.00000     0.00000
  33       0.15098    -0.09877     0.43769     0.00000    -0.00000     0.00000
  34       0.00643    -0.00093     0.00255    -0.00000     0.00000    -0.00000
  35      -0.00169     0.00327     0.00425    -0.00000     0.00000    -0.00000
  36      -0.00000     0.00243     0.00392    -0.00000     0.00000     0.00000
  37      -0.00000     0.00000    -0.00000     0.00079     0.01853     0.00869
  38      -0.00000    -0.00000    -0.00000    -0.23646     0.00395    -0.23012
  39      -0.00000    -0.00000     0.00000     0.05953     0.31416    -0.06377
  40      -0.00000     0.00000     0.00000    -0.22205     0.08306     0.22581
  41      -0.00000     0.00000    -0.00000     0.00242     0.00107    -0.00189
  42       0.00000    -0.00000     0.00000    -0.00180     0.00153    -0.00122
  43       0.00474    -0.00017     0.00521    -0.00000     0.00000     0.00000
  44       0.00288    -0.00513    -0.00345     0.00000    -0.00000    -0.00000
  45       0.00516    -0.00463    -0.00023    -0.00000    -0.00000    -0.00000
  46       0.00000     0.00000    -0.00000    -0.08423     0.07008     0.01421
  47      -0.00000     0.00000     0.00000     0.05769     0.07959    -0.05051
  48       0.00000    -0.00000    -0.00000     0.04215     0.03146     0.09724
  49       0.00000    -0.00000     0.00000    -0.00272     0.00147    -0.00092
  50       0.00000     0.00000    -0.00000    -0.00232    -0.00163     0.00251
  51       0.00000    -0.00000     0.00000     0.00000     0.00004     0.00002
  52       0.00011    -0.00017    -0.00014    -0.00000     0.00000     0.00000
  53      -0.00025     0.00000    -0.00024    -0.00000     0.00000    -0.00000
  54       0.00020    -0.00020    -0.00010    -0.00000     0.00000     0.00000
  55       0.00000    -0.00000     0.00000    -0.00004    -0.00091    -0.00043
  56       0.00402    -0.00722    -0.00621    -0.00000     0.00000     0.00000
  57       0.00655    -0.00404     0.00065     0.00000     0.00000     0.00000
  58      -0.00697     0.00033    -0.00634    -0.00000     0.00000     0.00000
  59       0.00000    -0.00000     0.00000    -0.00014    -0.00011     0.00022
  60      -0.00000     0.00000    -0.00000     0.00024    -0.00004     0.00006
  61      -0.00363    -0.00188    -0.00626    -0.00000     0.00000     0.00000
  62      -0.00682     0.00639     0.00212    -0.00000    -0.00000    -0.00000
  63      -0.00278     0.00028    -0.00234    -0.00000    -0.00000    -0.00000
  64      -0.00000     0.00000    -0.00000     0.00037     0.00872     0.00409
  65      -0.00000     0.00000    -0.00000    -0.00019    -0.00438    -0.00205
  66       0.00506    -0.00298     0.00072    -0.00000    -0.00000    -0.00000
  67       0.00279    -0.00452    -0.00362     0.00000    -0.00000    -0.00000
  68      -0.00363    -0.00077    -0.00464     0.00000    -0.00000    -0.00000
  69      -0.00000     0.00000    -0.00000    -0.00004    -0.00091    -0.00043

           19          20          21          22          23          24  
       ----------- ----------- ----------- ----------- ----------- -----------
   1      -0.00000     0.00000     0.00000     0.00039    -0.00096    -0.00000
   2       0.00733    -0.09452     0.03603     0.00000     0.00000     0.46794
   3      -0.01441    -0.03445    -0.09530     0.00000     0.00000     0.16209
   4      -0.10221     0.00056     0.01392    -0.00000    -0.00000     0.10087
   5      -0.00000     0.00000     0.00000    -0.00049     0.00120    -0.00000
   6      -0.00000     0.00000     0.00000    -0.00036     0.00088    -0.00000
   7      -0.32646     0.30727    -0.01998    -0.00000    -0.00000     0.51682
   8       0.08097     0.12092     0.42705    -0.00000    -0.00000     0.23830
   9       0.29887     0.30945    -0.14295     0.00000     0.00000     0.78448
  10      -0.00000     0.00000     0.00000     0.00056    -0.00137    -0.00000
  11      -0.01306     0.00560    -0.00906     0.00000     0.00000    -0.00089
  12       0.00000    -0.00000    -0.00000    -0.00025     0.00061     0.00000
  13      -0.00008    -0.00163    -0.00262     0.00000    -0.00000     0.00123
  14      -0.00059    -0.00164    -0.00272    -0.00000     0.00000     0.00145
  15      -0.00451    -0.00237    -0.00039     0.00000    -0.00000     0.00306
  16      -0.00000    -0.00000    -0.00000     0.00978    -0.00006    -0.00000
  17      -0.00000     0.00000    -0.00000    -0.00013     0.00601     0.00000
  18      -0.00000     0.00000    -0.00000    -0.00259    -0.00683     0.00000
  19       1.56242     0.00055    -0.00043    -0.00000    -0.00000    -0.01425
  20       0.00055     1.55788     0.00124     0.00000     0.00000    -0.09611
  21      -0.00043     0.00124     1.56201     0.00000     0.00000     0.00783
  22      -0.00000     0.00000     0.00000     1.56098     0.00291    -0.00000
  23      -0.00000     0.00000     0.00000     0.00291     1.55699    -0.00000
  24      -0.01425    -0.09611     0.00783    -0.00000    -0.00000     2.09819
  25      -0.09676     0.02269     0.02209    -0.00000    -0.00000     0.00830
  26       0.03142    -0.00449     0.09820     0.00000     0.00000    -0.00991
  27      -0.00725     0.00312    -0.00503    -0.00000    -0.00000     0.00121
  28      -0.00000     0.00000    -0.00000     0.00112     0.00149     0.00000
  29       0.00000    -0.00000     0.00000     0.00127     0.00213    -0.00000
  30      -0.00000    -0.00000    -0.00000    -0.00263     0.00107    -0.00000
  31       0.00006     0.00033     0.00218    -0.00000     0.00000    -0.00264
  32       0.00005     0.00014    -0.00011    -0.00000     0.00000     0.00002
  33      -0.00201     0.00011     0.00011    -0.00000     0.00000     0.00375
  34       0.05084    -0.26897    -0.41712     0.00000     0.00000     0.04730
  35      -0.48657    -0.11648     0.01697    -0.00000    -0.00000     0.04022
  36       0.11197    -0.40073     0.27666     0.00000     0.00000     0.08282
  37       0.00000    -0.00000    -0.00000     0.00201    -0.00493     0.00000
  38      -0.00000    -0.00000    -0.00000    -0.00190     0.00177    -0.00000
  39       0.00000    -0.00000     0.00000     0.00079     0.00257    -0.00000
  40       0.00000    -0.00000     0.00000    -0.00307    -0.00114    -0.00000
  41       0.00000    -0.00000    -0.00000     0.44112     0.32408     0.00000
  42       0.00000    -0.00000    -0.00000    -0.32336     0.43906     0.00000
  43      -0.01935     0.04625     0.00476     0.00000     0.00000    -0.25039
  44      -0.04275    -0.02695     0.01226     0.00000     0.00000     0.20355
  45       0.00795     0.00538     0.04724     0.00000     0.00000    -0.01908
  46       0.00000     0.00000     0.00000     0.00021    -0.00005     0.00000
  47       0.00000    -0.00000     0.00000    -0.00019    -0.00018    -0.00000
  48      -0.00000     0.00000    -0.00000    -0.00006     0.00016     0.00000
  49       0.00000    -0.00000    -0.00000    -0.24781     0.21305     0.00000
  50      -0.00000     0.00000     0.00000    -0.21561    -0.24810    -0.00000
  51      -0.00000     0.00000     0.00000     0.00000    -0.00001    -0.00000
  52       0.04234    -0.07564     0.12831     0.00000     0.00000    -0.34367
  53      -0.01026    -0.13484    -0.07591     0.00000     0.00000    -0.61156
  54      -0.14857    -0.01244     0.04197    -0.00000    -0.00000    -0.19713
  55      -0.00000     0.00000     0.00000    -0.00010     0.00024    -0.00000
  56      -0.01749    -0.01575     0.00840    -0.00000    -0.00000    -0.25555
  57       0.00141     0.00701     0.01616     0.00000     0.00000     0.03433
  58       0.00342    -0.01914    -0.00728     0.00000     0.00000    -0.29693
  59      -0.00000     0.00000     0.00000     0.05832     0.09392    -0.00000
  60       0.00000    -0.00000    -0.00000    -0.09391     0.05850     0.00000
  61      -0.06500     0.24168    -0.02889     0.00000     0.00000     0.63065
  62      -0.17045    -0.02105     0.18471     0.00000     0.00000    -0.17532
  63       0.17978     0.05797     0.17266    -0.00000    -0.00000     0.23866
  64      -0.00000     0.00000     0.00000     0.00095    -0.00232    -0.00000
  65       0.00000    -0.00000    -0.00000    -0.00048     0.00116     0.00000
  66      -0.00775     0.00089    -0.02006     0.00000     0.00000     0.02522
  67       0.01678     0.00321    -0.00323     0.00000     0.00000    -0.08609
  68      -0.01404     0.01659    -0.00549    -0.00000    -0.00000    -0.11859
  69      -0.00000     0.00000     0.00000    -0.00010     0.00024    -0.00000

           25          26          27          28          29          30  
       ----------- ----------- ----------- ----------- ----------- -----------
   1      -0.00000     0.00000     0.00000    -0.00093     0.00106     0.00026
   2      -0.07149     0.17428     0.00073     0.00000    -0.00000    -0.00000
   3      -0.09432    -0.47078    -0.00060    -0.00000     0.00000    -0.00000
   4       0.49234    -0.06286    -0.00086    -0.00000     0.00000    -0.00000
   5      -0.00000     0.00000    -0.00000     0.00074    -0.00084    -0.00020
   6      -0.00000     0.00000    -0.00000     0.00058    -0.00065    -0.00016
   7      -0.78062     0.23020     0.00300    -0.00000     0.00000     0.00000
   8      -0.12702    -0.93202    -0.00203     0.00000    -0.00000     0.00000
   9       0.56027     0.12262    -0.00036    -0.00000     0.00000     0.00000
  10      -0.00000     0.00000    -0.00000    -0.00299     0.00339     0.00083
  11       0.00268    -0.00297     0.47459    -0.00000    -0.00000     0.00000
  12       0.00000    -0.00000     0.00000    -0.00514     0.00582     0.00142
  13      -0.00192    -0.00240    -0.00002     0.00000    -0.00000    -0.00000
  14       0.00101     0.00002    -0.00003    -0.00000     0.00000    -0.00000
  15       0.00148    -0.00055    -0.00005    -0.00000     0.00000     0.00000
  16       0.00000     0.00000    -0.00000     0.06172     0.20537    -0.50436
  17      -0.00000     0.00000    -0.00000    -0.14779     0.49027     0.18344
  18       0.00000     0.00000     0.00000    -0.52121    -0.12071    -0.11425
  19      -0.09676     0.03142    -0.00725    -0.00000     0.00000    -0.00000
  20       0.02269    -0.00449     0.00312     0.00000    -0.00000    -0.00000
  21       0.02209     0.09820    -0.00503    -0.00000     0.00000    -0.00000
  22      -0.00000     0.00000    -0.00000     0.00112     0.00127    -0.00263
  23      -0.00000     0.00000    -0.00000     0.00149     0.00213     0.00107
  24       0.00830    -0.00991     0.00121     0.00000    -0.00000    -0.00000
  25       2.09794     0.01053    -0.00375    -0.00000     0.00000     0.00000
  26       0.01053     2.09409     0.00416     0.00000    -0.00000     0.00000
  27      -0.00375     0.00416     1.06109     0.00000     0.00000    -0.00000
  28      -0.00000     0.00000     0.00000     0.48958     0.00999     0.00415
  29       0.00000    -0.00000     0.00000     0.00999     0.48894     0.00044
  30       0.00000     0.00000    -0.00000     0.00415     0.00044     0.50152
  31      -0.00227    -0.00220    -0.00005    -0.00000    -0.00000    -0.00000
  32       0.00314     0.00288     0.00000     0.00000    -0.00000    -0.00000
  33      -0.00163    -0.00129     0.00006     0.00000     0.00000     0.00000
  34      -0.04393    -0.08252     0.00373    -0.00000     0.00000    -0.00000
  35       0.09617    -0.02730     0.01285    -0.00000    -0.00000    -0.00000
  36      -0.02808     0.06817    -0.01438     0.00000    -0.00000    -0.00000
  37       0.00000    -0.00000     0.00000    -0.00295     0.00335     0.00082
  38       0.00000     0.00000     0.00000     0.62203    -0.12226     0.85468
[...]
  13      12.36492     0.00012     0.00003
  14      30.52904    -0.00016    -0.00004
  15      -1.69560    -0.00207    -0.00011
  16      23.13525     0.00021     0.00006
  17      -7.02501     0.00004     0.00001
  18       0.39017     0.00054     0.00003
  19      -5.32363    -0.00006    -0.00002
  20       2.78876    -0.00002    -0.00001
  21      -0.15489    -0.00027    -0.00001
  22       2.11336     0.00003     0.00001
  23      -0.37102     0.00000     0.00000
  24       0.02061     0.00004     0.00000
  25      -0.28116    -0.00000    -0.00000
  26       0.00000    -0.96493   -15.97028
  27      -0.00000    -0.00014     0.00001
  28      -0.00000    -0.00020     0.00001
  29       0.00000    -0.96493   -15.97028
  30      -0.00000     0.00019    -0.00001
  31       0.00000    -0.96486   -15.97028
  32       0.00002   -13.23981    -4.09284
  33       0.00000     0.00090    -0.00003
  34      -0.00000     0.00130    -0.00004
  35       0.00002   -13.23977    -4.09284
  36       0.00000    -0.00125     0.00004
  37       0.00002   -13.24024    -4.09283
  38      -0.00000   -18.53117    -1.11245
  39      -0.00000    -0.00099     0.00002
  40       0.00000    -0.00143     0.00002
  41      -0.00000   -18.53120    -1.11245
  42      -0.00000     0.00138    -0.00002
  43      -0.00000   -18.53068    -1.11245
  44      -0.00000    -3.51591    -0.07093
  45       0.00000     0.00038    -0.00001
  46      -0.00000     0.00054    -0.00001
  47      -0.00000    -3.51590    -0.07093
  48       0.00000    -0.00052     0.00001
  49      -0.00000    -3.51610    -0.07093
  50     -11.05010     0.00005     0.00001
  51       0.61556     0.00070     0.00004
  52      -8.37124    -0.00007    -0.00002
  53     -11.05013     0.00005     0.00001
  54      -0.00131    -0.00000    -0.00000
  55     -11.04898     0.00005     0.00001
  56       0.61372     0.00070     0.00004
  57      -8.37369    -0.00007    -0.00002
  58       0.61185     0.00070     0.00004
  59      -8.37456    -0.00007    -0.00002
  60      -7.52952     0.00005     0.00001
  61       0.41678     0.00058     0.00003
  62      -5.70800    -0.00006    -0.00002
  63      -7.52949     0.00005     0.00001
  64       0.00101     0.00000     0.00000
  65      -7.53038     0.00005     0.00001
  66       0.41820     0.00058     0.00003
  67      -5.70610    -0.00006    -0.00002
  68       0.41965     0.00058     0.00003
  69      -5.70544    -0.00006    -0.00002
  int_init: cando_txs set to always be  F
                                NWChem TDDFT Module
                                -------------------


            General Information
            -------------------
           No. of orbitals :     138
            Alpha orbitals :      69
             Beta orbitals :      69
        Alpha frozen cores :       0
         Beta frozen cores :       0
     Alpha frozen virtuals :       0
      Beta frozen virtuals :       0
         Spin multiplicity :       2
    Number of AO functions :      69
        Use of symmetry is : off
      Symmetry adaption is : off
         Schwarz screening :  0.10D-07

              XC Information
              --------------
              Hartree-Fock (Exact) Exchange   1.00          
              LC-wPBE(h)Exchange Functional   1.00          
     Perdew 1991 LDA Correlation Functional   1.00 local    
    PerdewBurkeErnz. Correlation Functional   1.00 non-local
           Alpha           :  0.00
           Beta            :  1.00
           Gamma           :  0.28

             TDDFT Information
             -----------------
          Calculation type : TDDFT             
         Wavefunction type : Unrestricted
          No. of electrons :      35
           Alpha electrons :      18
            Beta electrons :      17
              No. of roots :       5
          Max subspacesize :    5000
            Max iterations :     100
               Target root :       1
           Target symmetry : none
      Symmetry restriction : off
                 Algorithm : Optimal
        Davidson threshold :  0.10D-03

            Memory Information
            ------------------
          Available GA space size is       52428790478 doubles
          Available MA space size is        4194421852 doubles
          Length of a trial vector is          918     884
          Algorithm : Incore multiple tensor contraction
          Estimated peak GA usage is          36857868 doubles
          Estimated peak MA usage is             18000 doubles

    5 smallest eigenvalue differences (eV) 
--------------------------------------------------------
  No. Spin  Occ  Vir  Irrep   E(Occ)    E(Vir)   E(Diff)
--------------------------------------------------------
    1    2   17   18 a        -0.400    -0.144     6.966
    2    2   16   18 a        -0.400    -0.144     6.966
    3    2   17   19 a        -0.400     0.060    12.524
    4    2   16   19 a        -0.400     0.060    12.524
    5    1   18   19 a        -0.413     0.058    12.818
--------------------------------------------------------

  Entering Davidson iterations
  Unrestricted

  Iter   NTrls   NConv    DeltaV     DeltaE      Time   
  ----  ------  ------  ---------  ---------  --------- 
    1      5       0     0.11E+00   0.10+100        9.5
    2     15       0     0.48E-01   0.76E-02       11.8
    3     25       0     0.16E-01   0.13E-02       11.8
    4     33       0     0.13E-01   0.69E-03       11.0
    5     41       0     0.45E-02   0.13E-03       11.0
    6     49       4     0.13E-02   0.14E-04       11.0
    7     51       4     0.25E-03   0.60E-06        8.5
    8     53       5     0.90E-04   0.37E-07        8.5
  ----  ------  ------  ---------  ---------  --------- 
  Convergence criterion met

  Ground state a       -2573.804096428672 a.u.
  <S2> =   0.7533

  ----------------------------------------------------------------------------
  Root   1         a              0.000115148 a.u.                0.0031 eV 
  <S2> =   0.7547
  ----------------------------------------------------------------------------
     Transition Moments    X  0.00000   Y -0.00000   Z -0.00000
     Transition Moments   XX -5.36096  XY  0.29649  XZ  3.38192
     Transition Moments   YY  4.40325  YZ  3.50916  ZZ  0.95771
     Dipole Oscillator Strength                    0.0000000000
     Electric Quadrupole                           0.0000000000
     Magnetic Dipole                               0.0000000000
     Total Oscillator Strength                     0.0000000000

     Occ.   15 alpha a   ---  Virt.   25 alpha a    0.12821 X
     Occ.   15 alpha a   ---  Virt.   25 alpha a    0.12818 Y
     Occ.   15 alpha a   ---  Virt.   34 alpha a    0.14496 X
     Occ.   15 alpha a   ---  Virt.   34 alpha a    0.14493 Y
     Occ.   16 alpha a   ---  Virt.   30 alpha a   -0.06009 X
     Occ.   16 alpha a   ---  Virt.   30 alpha a   -0.06007 Y
     Occ.   16 alpha a   ---  Virt.   38 alpha a   -0.10564 X
     Occ.   16 alpha a   ---  Virt.   38 alpha a   -0.10562 Y
     Occ.   16 alpha a   ---  Virt.   55 alpha a   -0.06966 X
     Occ.   16 alpha a   ---  Virt.   55 alpha a   -0.06965 Y
     Occ.   17 alpha a   ---  Virt.   41 alpha a    0.09503 X
     Occ.   17 alpha a   ---  Virt.   41 alpha a    0.09501 Y
     Occ.   17 alpha a   ---  Virt.   57 alpha a    0.05597 X
     Occ.   17 alpha a   ---  Virt.   57 alpha a    0.05596 Y
     Occ.   18 alpha a   ---  Virt.   20 alpha a   -0.06496 X
     Occ.   18 alpha a   ---  Virt.   20 alpha a   -0.06492 Y
     Occ.   18 alpha a   ---  Virt.   29 alpha a   -0.06507 X
     Occ.   18 alpha a   ---  Virt.   29 alpha a   -0.06504 Y
     Occ.   18 alpha a   ---  Virt.   37 alpha a    0.07896 X
     Occ.   18 alpha a   ---  Virt.   37 alpha a    0.07895 Y
     Occ.   18 alpha a   ---  Virt.   40 alpha a   -0.09503 X
     Occ.   18 alpha a   ---  Virt.   40 alpha a   -0.09501 Y
     Occ.   18 alpha a   ---  Virt.   58 alpha a   -0.05597 X
     Occ.   18 alpha a   ---  Virt.   58 alpha a   -0.05596 Y
     Occ.   15 beta  a   ---  Virt.   26 beta  a   -0.07579 X
     Occ.   15 beta  a   ---  Virt.   26 beta  a   -0.07573 Y
     Occ.   15 beta  a   ---  Virt.   35 beta  a   -0.05377 X
     Occ.   15 beta  a   ---  Virt.   35 beta  a   -0.05374 Y
     Occ.   16 beta  a   ---  Virt.   18 beta  a   -1.25182 X
     Occ.   16 beta  a   ---  Virt.   18 beta  a   -1.20411 Y
     Occ.   16 beta  a   ---  Virt.   20 beta  a    0.06833 X
     Occ.   16 beta  a   ---  Virt.   20 beta  a    0.06589 Y
     Occ.   17 beta  a   ---  Virt.   18 beta  a   -3.42883 X
     Occ.   17 beta  a   ---  Virt.   18 beta  a   -3.29815 Y
     Occ.   17 beta  a   ---  Virt.   20 beta  a    0.18717 X
     Occ.   17 beta  a   ---  Virt.   20 beta  a    0.18047 Y
     Occ.   17 beta  a   ---  Virt.   29 beta  a    0.10400 X
     Occ.   17 beta  a   ---  Virt.   29 beta  a    0.10036 Y
  ----------------------------------------------------------------------------
  Root   2         a              0.000115152 a.u.                0.0031 eV 
  <S2> =   0.7547
  ----------------------------------------------------------------------------
     Transition Moments    X -0.00000   Y  0.00000   Z  0.00000
     Transition Moments   XX -2.89645  XY  3.46687  XZ -0.46403
     Transition Moments   YY -3.99148  YZ -0.49387  ZZ  6.88794
     Dipole Oscillator Strength                    0.0000000000
     Electric Quadrupole                           0.0000000000
     Magnetic Dipole                               0.0000000000
     Total Oscillator Strength                     0.0000000000

     Occ.   15 alpha a   ---  Virt.   24 alpha a    0.12821 X
     Occ.   15 alpha a   ---  Virt.   24 alpha a    0.12817 Y
     Occ.   15 alpha a   ---  Virt.   33 alpha a    0.14496 X
     Occ.   15 alpha a   ---  Virt.   33 alpha a    0.14493 Y
     Occ.   16 alpha a   ---  Virt.   31 alpha a   -0.06009 X
     Occ.   16 alpha a   ---  Virt.   31 alpha a   -0.06007 Y
     Occ.   16 alpha a   ---  Virt.   39 alpha a    0.10564 X
     Occ.   16 alpha a   ---  Virt.   39 alpha a    0.10562 Y
     Occ.   16 alpha a   ---  Virt.   56 alpha a    0.06966 X
     Occ.   16 alpha a   ---  Virt.   56 alpha a    0.06965 Y
     Occ.   17 alpha a   ---  Virt.   20 alpha a   -0.06496 X
     Occ.   17 alpha a   ---  Virt.   20 alpha a   -0.06492 Y
     Occ.   17 alpha a   ---  Virt.   29 alpha a   -0.06507 X
     Occ.   17 alpha a   ---  Virt.   29 alpha a   -0.06504 Y
     Occ.   17 alpha a   ---  Virt.   37 alpha a    0.07896 X
     Occ.   17 alpha a   ---  Virt.   37 alpha a    0.07894 Y
     Occ.   17 alpha a   ---  Virt.   40 alpha a    0.09503 X
     Occ.   17 alpha a   ---  Virt.   40 alpha a    0.09501 Y
     Occ.   17 alpha a   ---  Virt.   58 alpha a    0.05596 X
     Occ.   17 alpha a   ---  Virt.   58 alpha a    0.05596 Y
     Occ.   18 alpha a   ---  Virt.   41 alpha a    0.09503 X
     Occ.   18 alpha a   ---  Virt.   41 alpha a    0.09501 Y
     Occ.   18 alpha a   ---  Virt.   57 alpha a    0.05596 X
     Occ.   18 alpha a   ---  Virt.   57 alpha a    0.05596 Y
     Occ.   15 beta  a   ---  Virt.   25 beta  a   -0.07579 X
     Occ.   15 beta  a   ---  Virt.   25 beta  a   -0.07573 Y
     Occ.   15 beta  a   ---  Virt.   34 beta  a   -0.05377 X
     Occ.   15 beta  a   ---  Virt.   34 beta  a   -0.05374 Y
     Occ.   16 beta  a   ---  Virt.   18 beta  a    3.42878 X
     Occ.   16 beta  a   ---  Virt.   18 beta  a    3.29810 Y
     Occ.   16 beta  a   ---  Virt.   20 beta  a   -0.18717 X
     Occ.   16 beta  a   ---  Virt.   20 beta  a   -0.18047 Y
     Occ.   16 beta  a   ---  Virt.   29 beta  a   -0.10400 X
     Occ.   16 beta  a   ---  Virt.   29 beta  a   -0.10036 Y
     Occ.   17 beta  a   ---  Virt.   18 beta  a   -1.25180 X
     Occ.   17 beta  a   ---  Virt.   18 beta  a   -1.20409 Y
     Occ.   17 beta  a   ---  Virt.   20 beta  a    0.06833 X
     Occ.   17 beta  a   ---  Virt.   20 beta  a    0.06589 Y
  ----------------------------------------------------------------------------
  Root   3         a              0.286142496 a.u.                7.7863 eV 
  <S2> =   2.4514
  ----------------------------------------------------------------------------
     Transition Moments    X -0.22629   Y -0.24326   Z  0.00578
     Transition Moments   XX  0.00001  XY  0.00000  XZ -0.00000
     Transition Moments   YY  0.00001  YZ -0.00000  ZZ  0.00001
     Dipole Oscillator Strength                    0.0210629239
     Electric Quadrupole                           0.0000000000
     Magnetic Dipole                               0.0000000000
     Total Oscillator Strength                     0.0210629239

     Occ.   18 alpha a   ---  Virt.   19 alpha a   -0.36888 X
     Occ.   18 alpha a   ---  Virt.   28 alpha a    0.08125 X
     Occ.   16 beta  a   ---  Virt.   19 beta  a    0.44720 X
     Occ.   16 beta  a   ---  Virt.   28 beta  a   -0.07474 X
     Occ.   17 beta  a   ---  Virt.   19 beta  a    0.79418 X
     Occ.   17 beta  a   ---  Virt.   28 beta  a   -0.13273 X
  ----------------------------------------------------------------------------
  Root   4         a              0.286142499 a.u.                7.7863 eV 
  <S2> =   2.4514
  ----------------------------------------------------------------------------
     Transition Moments    X -0.17493   Y  0.15714   Z -0.23472
     Transition Moments   XX  0.00003  XY  0.00000  XZ  0.00000
     Transition Moments   YY  0.00003  YZ -0.00000  ZZ  0.00003
     Dipole Oscillator Strength                    0.0210579910
     Electric Quadrupole                           0.0000000000
     Magnetic Dipole                               0.0000000000
     Total Oscillator Strength                     0.0210579910

     Occ.   17 alpha a   ---  Virt.   19 alpha a   -0.36888 X
     Occ.   17 alpha a   ---  Virt.   28 alpha a    0.08127 X
     Occ.   16 beta  a   ---  Virt.   19 beta  a   -0.79418 X
     Occ.   16 beta  a   ---  Virt.   28 beta  a    0.13273 X
     Occ.   17 beta  a   ---  Virt.   19 beta  a    0.44720 X
     Occ.   17 beta  a   ---  Virt.   28 beta  a   -0.07474 X
  ----------------------------------------------------------------------------
  Root   5         a              0.299453075 a.u.                8.1485 eV 
  <S2> =   1.0538
  ----------------------------------------------------------------------------
     Transition Moments    X  0.51286   Y  0.55020   Z -0.01232
     Transition Moments   XX -0.00000  XY -0.00000  XZ  0.00001
     Transition Moments   YY -0.00001  YZ -0.00000  ZZ -0.00000
     Dipole Oscillator Strength                    0.1129719359
     Electric Quadrupole                           0.0000000000
     Magnetic Dipole                               0.0000000000
     Total Oscillator Strength                     0.1129719359

     Occ.   18 alpha a   ---  Virt.   19 alpha a   -0.91427 X
     Occ.   18 alpha a   ---  Virt.   28 alpha a    0.13637 X
     Occ.   16 beta  a   ---  Virt.   19 beta  a   -0.18462 X
     Occ.   17 beta  a   ---  Virt.   19 beta  a   -0.32899 X

              Target root =      1
          Target symmetry = none
      Ground state energy =  -2573.804096428672
        Excitation energy =      0.000115148308
     Excited state energy =  -2573.803981280364

  stored tddft:energy   -2573.8039812803645     

 Task  times  cpu:       89.8s     wall:      105.6s


                                NWChem Input Module
                                -------------------


 Summary of allocated global arrays
-----------------------------------
  No active global arrays


MA_summarize_allocated_blocks: starting scan ...
heap block 'gridpts', handle 97, address 0x134151a8:
	type of elements:		double precision
	number of elements:		1048456624
	address of client space:	0x13415200
	index for client space:		12223895
	total number of bytes:		8387653088
MA_summarize_allocated_blocks: scan completed: 1 heap block, 0 stack blocks
MA usage statistics:

	allocation statistics:
					      heap	     stack
					      ----	     -----
	current number of blocks	         1	         0
	maximum number of blocks	        18	        54
	current total bytes		8387653088	         0
	maximum total bytes		8388447248	 109417528
	maximum total K-bytes		   8388448	    109418
	maximum total M-bytes		      8389	       110


                                     CITATION
                                     --------
                Please cite the following reference when publishing
                           results obtained with NWChem:

          E. Apra, E. J. Bylaska, W. A. de Jong, N. Govind, K. Kowalski,
       T. P. Straatsma, M. Valiev, H. J. J. van Dam, Y. Alexeev, J. Anchell,
       V. Anisimov, F. W. Aquino, R. Atta-Fynn, J. Autschbach, N. P. Bauman,
     J. C. Becca, D. E. Bernholdt, K. Bhaskaran-Nair, S. Bogatko, P. Borowski,
         J. Boschen, J. Brabec, A. Bruner, E. Cauet, Y. Chen, G. N. Chuev,
      C. J. Cramer, J. Daily, M. J. O. Deegan, T. H. Dunning Jr., M. Dupuis,
   K. G. Dyall, G. I. Fann, S. A. Fischer, A. Fonari, H. Fruchtl, L. Gagliardi,
      J. Garza, N. Gawande, S. Ghosh, K. Glaesemann, A. W. Gotz, J. Hammond,
       V. Helms, E. D. Hermes, K. Hirao, S. Hirata, M. Jacquelin, L. Jensen,
   B. G. Johnson, H. Jonsson, R. A. Kendall, M. Klemm, R. Kobayashi, V. Konkov,
      S. Krishnamoorthy, M. Krishnan, Z. Lin, R. D. Lins, R. J. Littlefield,
      A. J. Logsdail, K. Lopata, W. Ma, A. V. Marenich, J. Martin del Campo,
   D. Mejia-Rodriguez, J. E. Moore, J. M. Mullin, T. Nakajima, D. R. Nascimento,
    J. A. Nichols, P. J. Nichols, J. Nieplocha, A. Otero-de-la-Roza, B. Palmer,
    A. Panyala, T. Pirojsirikul, B. Peng, R. Peverati, J. Pittner, L. Pollack,
   R. M. Richard, P. Sadayappan, G. C. Schatz, W. A. Shelton, D. W. Silverstein,
   D. M. A. Smith, T. A. Soares, D. Song, M. Swart, H. L. Taylor, G. S. Thomas,
            V. Tipparaju, D. G. Truhlar, K. Tsemekhman, T. Van Voorhis,
      A. Vazquez-Mayagoitia, P. Verma, O. Villa, A. Vishnu, K. D. Vogiatzis,
        D. Wang, J. H. Weare, M. J. Williamson, T. L. Windus, K. Wolinski,
        A. T. Wong, Q. Wu, C. Yang, Q. Yu, M. Zacharias, Z. Zhang, Y. Zhao,
                                and R. J. Harrison
                        "NWChem: Past, present, and future
                         J. Chem. Phys. 152, 184102 (2020)
                               doi:10.1063/5.0004997

                                      AUTHORS
                                      -------
  E. Apra, E. J. Bylaska, N. Govind, K. Kowalski, M. Valiev, D. Mejia-Rodriguez,
       A. Kunitsa, N. P. Bauman, A. Panyala, W. A. de Jong, T. P. Straatsma,
   H. J. J. van Dam, D. Wang, T. L. Windus, J. Hammond, J. Autschbach, A. Woods,
    K. Bhaskaran-Nair, J. Brabec, K. Lopata, S. A. Fischer, S. Krishnamoorthy,
     M. Jacquelin, W. Ma, M. Klemm, O. Villa, Y. Chen, V. Anisimov, F. Aquino,
     S. Hirata, M. T. Hackler, E. Hermes, L. Jensen, J. E. Moore, J. C. Becca,
      V. Konjkov, T. Risthaus, M. Malagoli, A. Marenich, A. Otero-de-la-Roza,
        J. Mullin, P. Nichols, R. Peverati, J. Pittner, Y. Zhao, P.-D. Fan,
        A. Fonari, M. J. Williamson, R. J. Harrison, J. R. Rehr, M. Dupuis,
     D. Silverstein, D. M. A. Smith, J. Nieplocha, V. Tipparaju, M. Krishnan,
     B. E. Van Kuiken, A. Vazquez-Mayagoitia, M. Swart, Q. Wu, T. Van Voorhis,
     A. A. Auer, M. Nooijen, L. D. Crosby, E. Brown, G. Cisneros, G. I. Fann,
   H. Fruchtl, J. Garza, K. Hirao, R. A. Kendall, J. A. Nichols, K. Tsemekhman,
    K. Wolinski, J. Anchell, D. E. Bernholdt, P. Borowski, T. Clark, D. Clerc,
   H. Dachsel, M. J. O. Deegan, K. Dyall, D. Elwood, E. Glendening, M. Gutowski,
   A. C. Hess, J. Jaffe, B. G. Johnson, J. Ju, R. Kobayashi, R. Kutteh, Z. Lin,
   R. Littlefield, X. Long, B. Meng, T. Nakajima, S. Niu, L. Pollack, M. Rosing,
   K. Glaesemann, G. Sandrone, M. Stave, H. Taylor, G. Thomas, J. H. van Lenthe,
                               A. T. Wong, Z. Zhang.

 Total times  cpu:       89.8s     wall:      106.0s
