 argument  1 = /home/aditisingh4812/nw_chem/nwchem-run/nwchem-run/tddft/open/open_atom/geom-MOL/c.nw
                                         
                                         


             Northwest Computational Chemistry Package (NWChem) 7.2.3
             --------------------------------------------------------


                    Environmental Molecular Sciences Laboratory
                       Pacific Northwest National Laboratory
                                Richland, WA 99352

                              Copyright (c) 1994-2022
                       Pacific Northwest National Laboratory
                            Battelle Memorial Institute

             NWChem is an open-source computational chemistry package
                        distributed under the terms of the
                      Educational Community License (ECL) 2.0
             A copy of the license is included with this distribution
                              in the LICENSE.TXT file

                                  ACKNOWLEDGMENT
                                  --------------

            This software and its documentation were developed at the
            EMSL at Pacific Northwest National Laboratory, a multiprogram
            national laboratory, operated for the U.S. Department of Energy
            by Battelle under Contract Number DE-AC05-76RL01830. Support
            for this work was provided by the Department of Energy Office
            of Biological and Environmental Research, Office of Basic
            Energy Sciences, and the Office of Advanced Scientific Computing.


           Job information
           ---------------

    hostname        = p16
    program         = /home/aditisingh4812/nw_chem/nwchem-7.2.3-release.revision-d690e065-srconly.2024-08-27/nwchem-7.2.3/bin/LINUX64/nwchem
    date            = Tue Apr 15 00:07:54 2025

    compiled        = Mon_Apr_07_18:51:54_2025
    source          = /home/aditisingh4812/nw_chem/nwchem-7.2.3-release.revision-d690e065-srconly.2024-08-27/nwchem-7.2.3
    nwchem branch   = 7.2.3
    nwchem revision = d690e065
    ga revision     = 5.8.0
    use scalapack   = F
    input           = /home/aditisingh4812/nw_chem/nwchem-run/nwchem-run/tddft/open/open_atom/geom-MOL/c.nw
    prefix          = c.
    data base       = ./c.db
    status          = startup
    nproc           =        8
    time left       =     -1s



           Memory information
           ------------------

    heap     = 2621439998 doubles =  20000.0 Mbytes
    stack    = 2621439995 doubles =  20000.0 Mbytes
    global   = 6553600000 doubles =  50000.0 Mbytes (distinct from heap & stack)
    total    = ********** doubles =  90000.0 Mbytes
    verify   = yes
    hardfail = no 


           Directory information
           ---------------------

  0 permanent = .
  0 scratch   = .




                                NWChem Input Module
                                -------------------



 Scaling coordinates for geometry "geometry" by  1.889725989
 (inverse scale =  0.529177249)



                             Geometry "geometry" -> ""
                             -------------------------

 Output coordinates in angstroms (scale by  1.889725989 to convert to a.u.)

  No.       Tag          Charge          X              Y              Z
 ---- ---------------- ---------- -------------- -------------- --------------
    1 C                    6.0000     0.00000000     0.00000000     0.00000000

      Atomic Mass 
      ----------- 

      C                 12.000000


 Effective nuclear repulsion energy (a.u.)       0.0000000000

            Nuclear Dipole moment (a.u.) 
            ----------------------------
        X                 Y               Z
 ---------------- ---------------- ----------------
     0.0000000000     0.0000000000     0.0000000000


            XYZ format geometry
            -------------------
     1
 geometry
 C                     0.00000000     0.00000000     0.00000000



 Summary of "ao basis" -> "" (cartesian)
 ------------------------------------------------------------------------------
       Tag                 Description            Shells   Functions and Types
 ---------------- ------------------------------  ------  ---------------------
 *                        aug-cc-pVTZ                 on all atoms 


  pbe96 is a nonlocal functional; adding pw91lda local functional. 

                                 NWChem DFT Module
                                 -----------------


                      Basis "ao basis" -> "ao basis" (cartesian)
                      -----
  C (Carbon)
  ----------
            Exponent  Coefficients 
       -------------- ---------------------------------------------------------
  1 S  8.23600000E+03  0.000531
  1 S  1.23500000E+03  0.004108
  1 S  2.80800000E+02  0.021087
  1 S  7.92700000E+01  0.081853
  1 S  2.55900000E+01  0.234817
  1 S  8.99700000E+00  0.434401
  1 S  3.31900000E+00  0.346129
  1 S  3.64300000E-01 -0.008983

  2 S  8.23600000E+03 -0.000113
  2 S  1.23500000E+03 -0.000878
  2 S  2.80800000E+02 -0.004540
  2 S  7.92700000E+01 -0.018133
  2 S  2.55900000E+01 -0.055760
  2 S  8.99700000E+00 -0.126895
  2 S  3.31900000E+00 -0.170352
  2 S  3.64300000E-01  0.598684

  3 S  9.05900000E-01  1.000000

  4 S  1.28500000E-01  1.000000

  5 S  4.40200000E-02  1.000000

  6 P  1.87100000E+01  0.014031
  6 P  4.13300000E+00  0.086866
  6 P  1.20000000E+00  0.290216

  7 P  3.82700000E-01  1.000000

  8 P  1.20900000E-01  1.000000

  9 P  3.56900000E-02  1.000000

 10 D  1.09700000E+00  1.000000

 11 D  3.18000000E-01  1.000000

 12 D  1.00000000E-01  1.000000

 13 F  7.61000000E-01  1.000000

 14 F  2.68000000E-01  1.000000



 Summary of "ao basis" -> "ao basis" (cartesian)
 ------------------------------------------------------------------------------
       Tag                 Description            Shells   Functions and Types
 ---------------- ------------------------------  ------  ---------------------
 C                        aug-cc-pVTZ               14       55   5s4p3d2f




 Summary of "ao basis" -> "ao basis" (cartesian)
 ------------------------------------------------------------------------------
       Tag                 Description            Shells   Functions and Types
 ---------------- ------------------------------  ------  ---------------------
 C                        aug-cc-pVTZ               14       55   5s4p3d2f




                         Geometry "geometry" -> "geometry"
                         ---------------------------------

 Output coordinates in angstroms (scale by  1.889725989 to convert to a.u.)

  No.       Tag          Charge          X              Y              Z
 ---- ---------------- ---------- -------------- -------------- --------------
    1 C                    6.0000     0.00000000     0.00000000     0.00000000

      Atomic Mass 
      ----------- 

      C                 12.000000


 Effective nuclear repulsion energy (a.u.)       0.0000000000

            Nuclear Dipole moment (a.u.) 
            ----------------------------
        X                 Y               Z
 ---------------- ---------------- ----------------
     0.0000000000     0.0000000000     0.0000000000


                      Basis "ao basis" -> "ao basis" (cartesian)
                      -----
  C (Carbon)
  ----------
            Exponent  Coefficients 
       -------------- ---------------------------------------------------------
  1 S  8.23600000E+03  0.334227
  1 S  1.23500000E+03  0.623075
  1 S  2.80800000E+02  1.053106
  1 S  7.92700000E+01  1.583163
  1 S  2.55900000E+01  1.945099
  1 S  8.99700000E+00  1.642947
  1 S  3.31900000E+00  0.619659
  1 S  3.64300000E-01 -0.003067

  2 S  8.23600000E+03 -0.121010
  2 S  1.23500000E+03 -0.226569
  2 S  2.80800000E+02 -0.385753
  2 S  7.92700000E+01 -0.596702
  2 S  2.55900000E+01 -0.785835
  2 S  8.99700000E+00 -0.816533
  2 S  3.31900000E+00 -0.518870
  2 S  3.64300000E-01  0.347735

  3 S  9.05900000E-01  0.661790

  4 S  1.28500000E-01  0.152963

  5 S  4.40200000E-02  0.068493

  6 P  1.87100000E+01  2.186852
  6 P  4.13300000E+00  2.050312
  6 P  1.20000000E+00  1.459945

  7 P  3.82700000E-01  0.429055

  8 P  1.20900000E-01  0.101619

  9 P  3.56900000E-02  0.022112

 10 D  1.09700000E+00  1.935401

 11 D  3.18000000E-01  0.221644

 12 D  1.00000000E-01  0.029269

 13 F  7.61000000E-01  0.796288

 14 F  2.68000000E-01  0.076078



    Basis function labels
    ---------------------
       No.  Atm El Type
       ---  --- -- ----
        1    1 C  s          
        2    1 C  s          
        3    1 C  s          
        4    1 C  s          
        5    1 C  s          
        6    1 C  px         
        7    1 C  py         
        8    1 C  pz         
        9    1 C  px         
       10    1 C  py         
       11    1 C  pz         
       12    1 C  px         
       13    1 C  py         
       14    1 C  pz         
       15    1 C  px         
       16    1 C  py         
       17    1 C  pz         
       18    1 C  dxx        
       19    1 C  dxy        
       20    1 C  dxz        
       21    1 C  dyy        
       22    1 C  dyz        
       23    1 C  dzz        
       24    1 C  dxx        
       25    1 C  dxy        
       26    1 C  dxz        
       27    1 C  dyy        
       28    1 C  dyz        
       29    1 C  dzz        
       30    1 C  dxx        
       31    1 C  dxy        
       32    1 C  dxz        
       33    1 C  dyy        
       34    1 C  dyz        
       35    1 C  dzz        
       36    1 C  fxxx       
       37    1 C  fxxy       
       38    1 C  fxxz       
       39    1 C  fxyy       
       40    1 C  fxyz       
       41    1 C  fxzz       
       42    1 C  fyyy       
       43    1 C  fyyz       
       44    1 C  fyzz       
       45    1 C  fzzz       
       46    1 C  fxxx       
       47    1 C  fxxy       
       48    1 C  fxxz       
       49    1 C  fxyy       
       50    1 C  fxyz       
       51    1 C  fxzz       
       52    1 C  fyyy       
       53    1 C  fyyz       
       54    1 C  fyzz       
       55    1 C  fzzz       
  int_init: cando_txs set to always be  F

 Schwarz integral screening summary 
 ---------------------------------- 

        No. of atom pairs =       1
       No. of shell pairs =     105

 Atomic screening 

   value      no.     value      no.     value      no.     value      no.   
  -------- ------    -------- ------    -------- ------    -------- ------   
  0.00D+00      0    1.00D-13      0    1.00D-12      0    1.00D-11      0
  1.00D-10      0    1.00D-09      0    1.00D-08      0    1.00D-07      0
  1.00D-06      0    1.00D-05      0    1.00D-04      0    1.00D-03      0
  1.00D-02      0    1.00D-01      0    1.00D+00      1    1.00D+01      0


 Shell screening 

   value      no.     value      no.     value      no.     value      no.   
  -------- ------    -------- ------    -------- ------    -------- ------   
  0.00D+00      0    1.00D-13      0    1.00D-12      0    1.00D-11      0
  1.00D-10      0    1.00D-09      0    1.00D-08      0    1.00D-07      0
  1.00D-06      0    1.00D-05      0    1.00D-04      0    1.00D-03      0
  1.00D-02      6    1.00D-01     35    1.00D+00     64    1.00D+01      0


  Caching 1-el integrals 
  atom                     1  - neighbor  & S                     1   10.000000000000000       exp AB    3.5690000000000027E-002   3.5690000000000027E-002
 zmins =     0.035690000    0.035690000 lprod =   2 range =        18.55 acc   0.10D-07
 sh     0.000000000
  Center:                     1  Radial Pts. & Wghts. 
    1        0.000005215           4.2548796E-16
    2        0.000041720           1.0892640E-13
    3        0.000140807           2.7917674E-12
    4        0.000333771           2.7888189E-11
    5        0.000651916           1.6624625E-10
    6        0.001126560           7.1495474E-10
    7        0.001789046           2.4544826E-09
    8        0.002670748           7.1455895E-09
    9        0.003803087           1.8341772E-08
   10        0.005217541           4.2631425E-08
   11        0.006945664           9.1443043E-08
   12        0.009019101           1.8356687E-07
   13        0.011469608           3.4856777E-07
   14        0.014329074           6.3128702E-07
   15        0.017629546           1.0976555E-06
   16        0.021403250           1.8420682E-06
   17        0.025682622           2.9965999E-06
   18        0.030500337           4.7423751E-06
   19        0.035889342           7.3234445E-06
   20        0.041882887           1.1063559E-05
   21        0.048514566           1.6386287E-05
   22        0.055818352           2.3838966E-05
   23        0.063828642           3.4121049E-05
   24        0.072580301           4.8117482E-05
   25        0.082108709           6.6937812E-05
   26        0.092449814           9.1961846E-05
   27        0.103640181           1.2489276E-04
   28        0.115717058           1.6781872E-04
   29        0.128718430           2.2328416E-04
   30        0.142683088           2.9437214E-04
   31        0.157650701           3.8479924E-04
   32        0.173661887           4.9902482E-04
   33        0.190758296           6.4237672E-04
   34        0.208982695           8.2119554E-04
   35        0.228379060           1.0430005E-03
   36        0.248992673           1.3166798E-03
   37        0.270870229           1.6527089E-03
   38        0.294059949           2.0634014E-03
   39        0.318611703           2.5631966E-03
   40        0.344577137           3.1689903E-03
   41        0.372009822           3.9005143E-03
   42        0.400965401           4.7807735E-03
   43        0.431501757           5.8365479E-03
   44        0.463679192           7.0989714E-03
   45        0.497560622           8.6041997E-03
   46        0.533211789           1.0394180E-02
   47        0.570701489           1.2517542E-02
   48        0.610101827           1.5030628E-02
   49        0.651488489           1.7998689E-02
   50        0.694941044           2.1497273E-02
   51        0.740543271           2.5613836E-02
   52        0.788383528           3.0449631E-02
   53        0.838555142           3.6121897E-02
   54        0.891156856           4.2766441E-02
   55        0.946293315           5.0540649E-02
   56        1.004075605           5.9627038E-02
   57        1.064621851           7.0237442E-02
   58        1.128057890           8.2617953E-02
   59        1.194518014           9.7054791E-02
   60        1.264145806           1.1388127E-01
   61        1.337095078           1.3348612E-01
   62        1.413530928           1.5632343E-01
   63        1.493630929           1.8292461E-01
   64        1.577586485           2.1391279E-01
   65        1.665604364           2.5002027E-01
   66        1.757908446           2.9210971E-01
   67        1.854741730           3.4119999E-01
   68        1.956368638           3.9849795E-01
   69        2.063077668           4.6543749E-01
   70        2.175184470           5.4372804E-01
   71        2.293035432           6.3541493E-01
   72        2.417011866           7.4295514E-01
   73        2.547534927           8.6931274E-01
   74        2.685071436           1.0180803E+00
   75        2.830140786           1.1936343E+00
   76        2.983323224           1.4013351E+00
   77        3.145269800           1.6477881E+00
   78        3.316714449           1.9411858E+00
   79        3.498488758           2.2917617E+00
   80        3.691540166           2.7123989E+00
   81        3.896954605           3.2194559E+00
   82        4.115984961           3.8339014E+00
   83        4.350087227           4.5828955E+00
   84        4.600967005           5.5020294E+00
   85        4.870640122           6.6385516E+00
   86        5.161512828           8.0561059E+00
   87        5.476489711           9.8418432E+00
   88        5.819121670           1.2117362E+01
   89        6.193813236           1.5056009E+01
   90        6.606120319           1.8911146E+01
   91        7.063190262           2.4064054E+01
   92        7.574434551           3.1108814E+01
   93        8.152599394           4.1010751E+01
   94        8.815554958           5.5421774E+01
   95        9.589473191           7.7360069E+01
   96       10.514929258           1.1283365E+02
   97       11.659898192           1.7529225E+02
   98       13.151809746           3.0049832E+02
   99       15.276748368           6.1447886E+02
  100       18.947586591           1.9098149E+03
     irreducible set of Lebedev Angular points ;
  0.009523809523810  1.000000000000000  0.000000000000000  0.000000000000000
  0.032142857142857  0.577350269189626  0.577350269189626  0.577350269189626
  0.028571428571429  0.459700843380983  0.000000000000000  0.888073833977115
   total no. of   reducible points:  38; test:  1.00000000
  0.012698412698413  1.000000000000000  0.000000000000000  0.000000000000000
  0.022574955908289  0.707106781186547  0.707106781186547  0.000000000000000
  0.021093750000000  0.577350269189626  0.577350269189626  0.577350269189626
  0.020173335537919  0.301511344577764  0.301511344577764  0.904534033733291
   total no. of   reducible points:  50; test:  1.00000000
  0.000513067179734  1.000000000000000  0.000000000000000  0.000000000000000
  0.016604069565742  0.707106781186547  0.707106781186547  0.000000000000000
 -0.029586038961039  0.577350269189626  0.577350269189626  0.577350269189626
  0.026576207082159  0.480384461415261  0.480384461415261  0.733799385705343
  0.016522170993716  0.320772648980776  0.000000000000000  0.947156221362588
   total no. of   reducible points:  74; test:  1.00000000
  0.011544011544012  1.000000000000000  0.000000000000000  0.000000000000000
  0.011943909085856  0.577350269189626  0.577350269189626  0.577350269189626
  0.011110555710603  0.369602846454150  0.369602846454150  0.852518311701268
  0.011876501294537  0.694354006602666  0.694354006602666  0.189063552885395
  0.011812303746904  0.374243039090341  0.000000000000000  0.927330657151172
   total no. of   reducible points:  86; test:  1.00000000
  0.003828270494937  1.000000000000000  0.000000000000000  0.000000000000000
  0.009793737512488  0.577350269189626  0.577350269189626  0.577350269189626
  0.008211737283191  0.185115635344736  0.185115635344736  0.965124035086594
  0.009942814891178  0.690421048382292  0.690421048382292  0.215957291845848
  0.009595471336071  0.395689473055942  0.395689473055942  0.828769981252592
  0.009694996361663  0.478369028812150  0.000000000000000  0.878158910604066
   total no. of   reducible points: 110; test:  1.00000000
  0.000599631368862  1.000000000000000  0.000000000000000  0.000000000000000
  0.007372999718621  0.707106781186547  0.707106781186547  0.000000000000000
  0.007210515360144  0.577350269189626  0.577350269189626  0.577350269189626
  0.007116355493118  0.676441040011426  0.676441040011426  0.291298882209527
  0.006753829486314  0.417496122796545  0.417496122796545  0.807089818359583
  0.007574394159054  0.157467667203908  0.157467667203908  0.974888643677173
  0.006991087353303  0.140355381171318  0.449332832326956  0.882270011260323
   total no. of   reducible points: 146; test:  1.00000000
  0.005544842902037  1.000000000000000  0.000000000000000  0.000000000000000
  0.006071332770671  0.707106781186547  0.707106781186547  0.000000000000000
  0.006383674773515  0.577350269189626  0.577350269189626  0.577350269189626
  0.005183387587748  0.255125262111413  0.255125262111413  0.932642590312691
  0.006317929009814  0.674360146036277  0.674360146036277  0.300793595137701
  0.006201670006589  0.431891069671941  0.431891069671941  0.791795559393492
  0.005477143385137  0.261393136033599  0.000000000000000  0.965232421976448
  0.005968383987681  0.499045316179604  0.144663074432512  0.854415804684659
   total no. of   reducible points: 170; test:  1.00000000
  0.001782340447245  1.000000000000000  0.000000000000000  0.000000000000000
  0.005716905949977  0.707106781186547  0.707106781186547  0.000000000000000
  0.005573383178849  0.577350269189626  0.577350269189626  0.577350269189626
  0.005608704082588  0.671297344269523  0.671297344269523  0.314196994182586
  0.005158237711805  0.289246562757544  0.289246562757544  0.912509096867474
  0.005518771467274  0.444693317871744  0.444693317871744  0.777493219314767
  0.004106777028169  0.129933544765007  0.129933544765007  0.982972302707253
  0.005051846064615  0.345770219761128  0.000000000000000  0.938319218137592
  0.005530248916233  0.159041710538353  0.836036015482459  0.525118572443642
   total no. of   reducible points: 194; test:  1.00000000
 -0.055226399197273  1.000000000000000  0.000000000000000  0.000000000000000
  0.004450274607445  0.577350269189626  0.577350269189626  0.577350269189626
  0.004496841067921  0.449204468739761  0.449204468739761  0.772289253148364
  0.005049153450479  0.252041949021020  0.252041949021020  0.934317778845812
  0.003976408018052  0.698190665844724  0.698190665844724  0.158302205463478
  0.004401400650381  0.658740524346096  0.658740524346096  0.363485684956727
  0.017245443505444  0.040385440500977  0.040385440500977  0.998367683967727
  0.004231083095357  0.582384230971558  0.000000000000000  0.812913653173365
  0.005198069864064  0.354587739051869  0.000000000000000  0.935022745880593
  0.004695720972569  0.227218180899819  0.486466153588665  0.843636521068894
   total no. of   reducible points: 230; test:  1.00000000
 -0.001313769127327  1.000000000000000  0.000000000000000  0.000000000000000
 -0.002522728704859  0.707106781186547  0.707106781186547  0.000000000000000
  0.004186853881701  0.577350269189626  0.577350269189626  0.577350269189626
  0.005315167977811  0.703937339158548  0.703937339158548  0.094575076403713
  0.004047142377086  0.101252624857241  0.101252624857241  0.989694807462905
  0.004112482394407  0.464744872642054  0.464744872642054  0.753673939250816
  0.003595584899759  0.327742065497163  0.327742065497163  0.886098344997499
  0.004256131351428  0.662033866369997  0.662033866369997  0.351315128564633
  0.004229582700647  0.850650808352040  0.000000000000000  0.525731112119134
  0.004080914225781  0.323348454269290  0.115311201100970  0.939227929749916
  0.004071467593831  0.231479015871260  0.524493924092236  0.819343388819120
   total no. of   reducible points: 266; test:  1.00000000
  0.000854591172513  1.000000000000000  0.000000000000000  0.000000000000000
  0.003599119285026  0.577350269189626  0.577350269189626  0.577350269189626
  0.003449788424306  0.351564034557011  0.351564034557011  0.867643624544083
  0.003604822601420  0.656632941021961  0.656632941021961  0.371034178384821
  0.003576729661743  0.472905413258100  0.472905413258100  0.743452042987556
  0.002352101413689  0.096183085226148  0.096183085226148  0.990705621379408
  0.003108953122414  0.221964523629418  0.221964523629418  0.949454317226443
  0.003650045807677  0.701176641608955  0.701176641608955  0.129238672710514
  0.002982344963172  0.264415288706066  0.000000000000000  0.964408914879206
  0.003600820932216  0.571895589187896  0.000000000000000  0.820326419827759
  0.003571540554273  0.251003475177047  0.800072749407395  0.544867737258077
  0.003392312205006  0.123354853258333  0.412772408316853  0.902442529533000
   total no. of   reducible points: 302; test:  1.00000000
  0.003006796749454  1.000000000000000  0.000000000000000  0.000000000000000
  0.003050627745651  0.577350269189626  0.577350269189626  0.577350269189626
  0.001621104600289  0.706896546391232  0.706896546391232  0.024383301669356
  0.003005701484902  0.479468262571203  0.479468262571203  0.734996850587746
  0.002990992529654  0.192753315487802  0.192753315487802  0.962129055136014
  0.002982170644108  0.693035796132712  0.693035796132712  0.198501311223365
  0.002721564237311  0.360830211552009  0.360830211552009  0.860001812127547
  0.003033513795811  0.649848616149617  0.649848616149617  0.394199888605839
  0.003007949555219  0.193294501323034  0.000000000000000  0.981140782843257
  0.002881964603055  0.380049491989930  0.000000000000000  0.924966152698679
  0.002958357626536  0.289955882549957  0.793453785658232  0.535123047718276
  0.003036020026407  0.096841214551040  0.828080150668686  0.552182074349399
  0.002832187403926  0.183343464704166  0.907465826530513  0.378009189874487
   total no. of   reducible points: 350; test:  1.00000000
  0.000526589796822  1.000000000000000  0.000000000000000  0.000000000000000
  0.002548219972003  0.707106781186547  0.707106781186547  0.000000000000000
  0.002512317418927  0.577350269189626  0.577350269189626  0.577350269189626
  0.002530403801186  0.690934630750911  0.690934630750911  0.212646824707552
  0.002014279020919  0.177483605460916  0.177483605460916  0.967987158791473
  0.002501725168403  0.491434263778475  0.491434263778475  0.719016501040843
  0.002513267174598  0.645666470742426  0.645666470742426  0.407712664897770
  0.002302694782227  0.286128901030764  0.286128901030764  0.914472801120872
  0.001462495621595  0.075680843671780  0.075680843671780  0.994255912631278
  0.002445373437313  0.392725976336800  0.392725976336800  0.831584400419232
  0.002417442375639  0.881813287779429  0.000000000000000  0.471598691151316
  0.001910951282180  0.977642811118265  0.000000000000000  0.210272522857307
  0.002416930044325  0.205482369640304  0.868946032287241  0.450233038258263
  0.002512236854563  0.590515704892527  0.799927854385729  0.106801826075805
  0.002496644054553  0.555015236107681  0.771746262691590  0.310428403516654
  0.002236607760438  0.937180985855372  0.334436314534346  0.099217696364292
   total no. of   reducible points: 434; test:  1.00000000
  0.000309512129531  1.000000000000000  0.000000000000000  0.000000000000000
  0.001852379698597  0.577350269189626  0.577350269189626  0.577350269189626
  0.001871790639278  0.704095493822747  0.704095493822747  0.092190407076898
  0.001858812585438  0.680774406645524  0.680774406645524  0.270356088359165
  0.001852028828296  0.637254693925875  0.637254693925875  0.433373868777154
  0.001846715956151  0.504441970780036  0.504441970780036  0.700768575373573
  0.001818471778163  0.421576178401097  0.421576178401097  0.802836877335274
  0.001749564657281  0.331792073647212  0.331792073647212  0.883078727934133
  0.001617210647254  0.238473670142189  0.238473670142189  0.941414158220403
  0.001384737234852  0.145903644915776  0.145903644915776  0.978480583762694
  0.000976433116505  0.060950341155072  0.060950341155072  0.996278129754016
  0.001857161196774  0.611684344200988  0.000000000000000  0.791101929626902
  0.001705153996396  0.396475534819986  0.000000000000000  0.918045287711454
  0.001300321685886  0.172478200990772  0.000000000000000  0.985013335028002
  0.001842866472905  0.561026380862206  0.351828092773352  0.749310611904116
  0.001802658934377  0.474239284255198  0.263471665593795  0.840047488359050
  0.001849830560444  0.598412649788538  0.181664084036021  0.780320742479920
  0.001713904507107  0.379103540769556  0.172079522565688  0.909213475092374
  0.001555213603397  0.277867319058624  0.082130215819325  0.957102074310073
  0.001802239128009  0.503356427107512  0.089992058420749  0.859379855890721
   total no. of   reducible points: 590; test:  1.00000000
  0.000219294208818  1.000000000000000  0.000000000000000  0.000000000000000
  0.001436433617319  0.707106781186547  0.707106781186547  0.000000000000000
  0.001421940344336  0.577350269189626  0.577350269189626  0.577350269189626
  0.000679812351105  0.050872044105024  0.050872044105024  0.997408677652823
  0.000991318423529  0.122819879017883  0.122819879017883  0.984799753572301
  0.001180207833239  0.202689081440879  0.202689081440879  0.958036675983391
  0.001296599602081  0.284774515646429  0.284774515646429  0.915317950483155
  0.001365871427428  0.365671907897803  0.365671907897803  0.855901928697887
  0.001402988604775  0.442826488671347  0.442826488671347  0.779621319527635
  0.001418645563596  0.514061962724974  0.514061962724974  0.686644447264154
  0.001421376741852  0.630640121916680  0.630640121916680  0.452311920313658
  0.001423996475491  0.671688333202261  0.671688333202261  0.312521305001653
  0.001431554042179  0.697979268533688  0.697979268533688  0.160155803498829
  0.000925440149987  0.144686567419531  0.000000000000000  0.989477537495599
  0.001250239995054  0.339026347541122  0.000000000000000  0.940776878793759
  0.001394365843329  0.533580465126351  0.000000000000000  0.845749305193653
  0.001127089094672  0.069440243933494  0.235518789424233  0.969385863498432
  0.001345753760911  0.226900410952946  0.410218247404573  0.883310360522113
  0.001424957283317  0.080255746077753  0.621430241748161  0.779348105702661
  0.001261523341238  0.146799952789657  0.324528434571739  0.934414827052402
  0.001392547106053  0.157150776982473  0.522448218969663  0.838064133458312
  0.001418761677878  0.236570299315725  0.601754663408956  0.762840624604670
  0.001338366684480  0.077148158667657  0.434657551614116  0.897285336132833
  0.001393700862676  0.306293666621073  0.490882658903762  0.815609223203975
  0.001415914757467  0.382247737952479  0.564876814909950  0.731300793659766
   total no. of   reducible points: 770; test:  1.00000000
  0.000143829419053  1.000000000000000  0.000000000000000  0.000000000000000
  0.001125772288287  0.577350269189626  0.577350269189626  0.577350269189626
  0.000494802934195  0.042929635453413  0.042929635453413  0.998155345023847
  0.000735799010913  0.105142685408640  0.105142685408640  0.988883224354686
  0.000888913277130  0.175002486762309  0.175002486762309  0.968890220434707
  0.000988834783892  0.247765337965026  0.247765337965026  0.936602730407163
  0.001053299681709  0.320656712395596  0.320656712395596  0.891267942647606
  0.001092778807015  0.391652074984998  0.391652074984998  0.832596723702352
  0.001114389394063  0.459082587418762  0.459082587418762  0.760582905315251
  0.001123724788052  0.521456388841586  0.521456388841586  0.675400969108414
  0.001125239325244  0.625317024465420  0.625317024465420  0.466858905695743
  0.001126153271816  0.663792674452317  0.663792674452317  0.344613654237438
  0.001130286931124  0.691041039849830  0.691041039849830  0.211954151850184
  0.001134986534364  0.705290700745776  0.705290700745776  0.071624401449956
  0.000682336792711  0.123668676265799  0.000000000000000  0.992323565431490
  0.000945415816045  0.294077711446839  0.000000000000000  0.955781512496548
  0.001074429975386  0.469775384920765  0.000000000000000  0.882785980701182
  0.001129300086569  0.633456324113957  0.000000000000000  0.773778447257375
  0.000843688450090  0.059740486141813  0.202912875277752  0.977372722845310
  0.001075255720449  0.137576040847364  0.460262194248405  0.877058461865803
  0.001108577236864  0.339101652633629  0.503067399966204  0.794942299964208
  0.000956647532378  0.127167519143982  0.281760642244213  0.951020169374390
  0.001080663250717  0.269312074041351  0.433156129172016  0.860143461601762
  0.001126797131196  0.141978645260192  0.625616735858081  0.767102186220558
  0.001022568715358  0.067092846007383  0.379839521685916  0.922616110730809
  0.001108960267713  0.070577381832562  0.551750542142352  0.831017552413474
  0.001122790653436  0.278388847788215  0.602961915615919  0.747620610834086
  0.001032401847117  0.197957893891741  0.358960632958910  0.912118378409121
  0.001107249382284  0.208730706110327  0.534866643813548  0.818748536281022
  0.001121780048520  0.405512213787284  0.567499754607437  0.716591845467024
   total no. of   reducible points: 974; test:  1.00000000
  0.000110518923327  1.000000000000000  0.000000000000000  0.000000000000000
  0.000920523273809  0.707106781186547  0.707106781186547  0.000000000000000
  0.000913315978644  0.577350269189626  0.577350269189626  0.577350269189626
  0.000369042189802  0.037126364496571  0.037126364496571  0.998620681799919
  0.000560399092868  0.091400604122622  0.091400604122622  0.991610739722014
  0.000686529762928  0.153107785246991  0.153107785246991  0.976276606394685
  0.000772033855115  0.218092889166061  0.218092889166061  0.951247067480579
  0.000830154595889  0.283987453220018  0.283987453220018  0.915806886208668
  0.000868669255018  0.349117760096376  0.349117760096376  0.869616915181954
  0.000892707628585  0.412143146144431  0.412143146144431  0.812573722299916
  0.000906082023857  0.471899362714913  0.471899362714913  0.744729469632107
  0.000911977725494  0.527314545284234  0.527314545284234  0.666242253736104
  0.000912872013860  0.620947533244402  0.620947533244402  0.478380938076952
  0.000913071493569  0.656972271185729  0.656972271185729  0.369830866459426
  0.000915287378455  0.684178830907014  0.684178830907014  0.252583955700718
  0.000918743627432  0.701260433012363  0.701260433012363  0.128326186659723
  0.000517697731297  0.107238221547817  0.000000000000000  0.994233354821322
  0.000733114368210  0.258206895949697  0.000000000000000  0.966089643296119
  0.000846323283638  0.417275295530672  0.000000000000000  0.908780131681911
  0.000903112269425  0.570036691179250  0.000000000000000  0.821619237061433
  0.000648577845316  0.982798601826395  0.177177402261533  0.052106394770113
  0.000743503091098  0.962424923032623  0.247571646342629  0.111564095715648
  0.000799852789184  0.940200799412881  0.335461628906649  0.059058888532354
  0.000810173149747  0.932082204014320  0.317361524661198  0.174655167757863
  0.000848338957459  0.904367419939330  0.409026842708536  0.121723505109599
  0.000855629925731  0.891240756007475  0.385429115066922  0.239027847938172
  0.000880320867974  0.867643562846271  0.493222118485128  0.062662506241542
  0.000881104818243  0.858197998604162  0.478532067592243  0.185750519454734
  0.000885028234127  0.839675362404986  0.450742259315706  0.302946697352898
  0.000902134229904  0.816528856402219  0.563212302076210  0.126777480068428
  0.000901009167711  0.801546937078353  0.543430356969390  0.249411216236224
  0.000902269293843  0.777356306907035  0.512351848641987  0.364983226059765
  0.000915801617469  0.766162121390039  0.639427963474910  0.064245492242208
  0.000913157800319  0.755358414353351  0.626980550902439  0.190601822277923
  0.000910781357948  0.734430575755950  0.603116169309631  0.311227594714961
  0.000910576025897  0.704383718402177  0.569370249846844  0.423864478152234
   total no. of   reducible points:1202; test:  1.00000000
  0.000077771607433  1.000000000000000  0.000000000000000  0.000000000000000
  0.000755764641300  0.577350269189626  0.577350269189626  0.577350269189626
  0.000284163380609  0.032292906634139  0.032292906634139  0.998956623864238
  0.000437441912705  0.080367332714622  0.080367332714622  0.993520097262594
  0.000541717474087  0.135428996053165  0.135428996053165  0.981487633165117
  0.000614800089136  0.193896386111443  0.193896386111443  0.961669580940275
  0.000666439448580  0.253734371501127  0.253734371501127  0.933401166400522
  0.000702503935692  0.313525143475257  0.313525143475257  0.896328047546008
  0.000726851178925  0.372155833937534  0.372155833937534  0.850294108254619
  0.000742263753421  0.428680957519570  0.428680957519570  0.795276853253136
  0.000750954503584  0.482251012828299  0.482251012828299  0.731346649169981
  0.000754853505772  0.532067933356626  0.532067933356626  0.658640591360127
  0.000755408896977  0.617299819539427  0.617299819539427  0.487731345715221
  0.000755314717444  0.651067984912748  0.651067984912748  0.390155043595885
  0.000756476765329  0.677731525168736  0.677731525168736  0.285236672931301
  0.000758799180852  0.696310941064874  0.696310941064874  0.174075117999957
  0.000760826183203  0.705893500983175  0.705893500983175  0.058555363028785
  0.000402168044787  0.995554619409186  0.000000000000000  0.094185985013862
  0.000580487179395  0.973411590179421  0.000000000000000  0.229063039585986
  0.000679215195595  0.927569373238863  0.000000000000000  0.373650983980055
  0.000733674121129  0.856802242279510  0.000000000000000  0.515645147000147
  0.000758186630099  0.762349555371937  0.000000000000000  0.647165477620840
  0.000753825785980  0.570752290889222  0.438702803988950  0.694104943230444
  0.000748351724705  0.519646338840308  0.385890841476262  0.762270254565011
  0.000737176366111  0.464633753121535  0.330193737234385  0.821637128756598
  0.000718344889576  0.406390169755769  0.272542357356378  0.872105322408083
  0.000689581552982  0.345632946664309  0.213951023749525  0.913653558859526
  0.000648010580179  0.283139512105033  0.155592230978665  0.946373644151191
  0.000589755889659  0.219768202292533  0.098928789796861  0.970523071240677
  0.000509570884925  0.156469609865035  0.045986429106755  0.986611630545015
  0.000753690642891  0.602735667372129  0.337662514017343  0.722975616397235
  0.000747250596558  0.549603232025510  0.282230130972799  0.786309379645309
  0.000734301713228  0.492170775523457  0.224863234259254  0.840954489612314
  0.000713087158218  0.430942299859848  0.166622472345648  0.886862833757808
  0.000681702203211  0.366410818231367  0.108696490182217  0.924082347686118
  0.000638094114560  0.299018905775844  0.052519897841201  0.952800794667682
  0.000755038137792  0.626872401314500  0.229752365755002  0.744476220506856
  0.000747864664014  0.570732414483461  0.172308060709380  0.802853936449496
  0.000733591872060  0.509636090196037  0.114023846539051  0.852801042441985
  0.000711012052766  0.443872993831246  0.056115220958825  0.894330949550573
  0.000757136397869  0.641997847108239  0.116417442314087  0.757816431224233
  0.000748990832908  0.581721806180261  0.057975895314452  0.811319009870262
   total no. of   reducible points:1454; test:  1.00000000
  qrot: 

              1        2        3      
    1    1.0000   0.0000   0.0000
    2    0.0000   1.0000   0.0000
    3    0.0000   0.0000   1.0000
  me                     0   done genpts
  me                     1   done genpts
  me                     2   done genpts
  me                     3   done genpts
  me                     4   done genpts
  me                     5   done genpts
  me                     6   done genpts
  me                     7   done genpts
  me                     0   done uprt
  me                     1   done uprt
  me                     2   done uprt
  me                     3   done uprt
  me                     4   done uprt
  me                     5   done uprt
  me                     6   done uprt
  me                     7   done uprt
  me                     0  done mem
  me                     1  done mem
  me                     2  done mem
  me                     3  done mem
  me                     4  done mem
  me                     5  done mem
  me                     6  done mem
  me                     7  done mem
  dftinpanae: itol2e                     8  iaoacc                    14  tol_rho    1.0000000000000000E-010

            General Information
            -------------------
          SCF calculation type: DFT
          Wavefunction type:  spin polarized.
          No. of atoms     :     1
          No. of electrons :     6
           Alpha electrons :     4
            Beta electrons :     2
          Charge           :     0
          Spin multiplicity:     3
          Use of symmetry is: off; symmetry adaption is: off
          Maximum number of iterations:  50
          AO basis - number of functions:    55
                     number of shells:    14
          Convergence on energy requested:  1.00D-06
          Convergence on density requested:  1.00D-05
          Convergence on gradient requested:  5.00D-04

              XC Information
              --------------
                     Hartree-Fock (Exact) Exchange  1.000          
                     LC-wPBE(h)Exchange Functional  1.000          
            Perdew 1991 LDA Correlation Functional  1.000 local    
           PerdewBurkeErnz. Correlation Functional  1.000 non-local

           Range-Separation Parameters        
           ---------------------------
           Alpha           :  0.00
           Beta            :  1.00
           Gamma           :  0.41
           Short-Range HF  :     F

             Grid Information
             ----------------
          Grid used for XC integration:  xfine     
          Radial quadrature: Mura-Knowles        
          Angular quadrature: Lebedev. 
          Tag              B.-S. Rad. Rad. Pts. Rad. Cut. Ang. Pts.
          ---              ---------- --------- --------- ---------
          C                   0.70      100          10.0      1454
          Grid pruning is: on 
          Number of quadrature shells:   100
          Spatial weights used:  Erf1

          Convergence Information
          -----------------------
          Convergence aids based upon iterative change in 
          total energy or number of iterations. 
          Levelshifting, if invoked, occurs when the 
          HOMO/LUMO gap drops below (HL_TOL):  1.00D-02
          DIIS, if invoked, will attempt to extrapolate 
          using up to (NFOCK): 10 stored Fock matrices.

                    Damping( 0%)  Levelshifting(0.5)       DIIS
                  --------------- ------------------- ---------------
          dE  on:    start            ASAP                start   
          dE off:    2 iters         50 iters            50 iters 


      Screening Tolerance Information
      -------------------------------
          Density screening/tol_rho:  1.00D-10
          AO Gaussian exp screening on grid/accAOfunc:  14
          CD Gaussian exp screening on grid/accCDfunc:  20
          XC Gaussian exp screening on grid/accXCfunc:  20
          Schwarz screening/accCoul:  1.00D-08



                         Geometry "geometry" -> "geometry"
                         ---------------------------------

 Output coordinates in angstroms (scale by  1.889725989 to convert to a.u.)

  No.       Tag          Charge          X              Y              Z
 ---- ---------------- ---------- -------------- -------------- --------------
    1 C                    6.0000     0.00000000     0.00000000     0.00000000

      Atomic Mass 
      ----------- 

      C                 12.000000


 Effective nuclear repulsion energy (a.u.)       0.0000000000

            Nuclear Dipole moment (a.u.) 
            ----------------------------
        X                 Y               Z
 ---------------- ---------------- ----------------
     0.0000000000     0.0000000000     0.0000000000

  
  CAM type calculations without CDFIT are
  only available with the direct option.
  Forcing Direct SCF
  


     <<<<<<    Before call to DFT_SCF.    >>>>>>
     <<<<<< date:  Apr 15  time: 00:07:54 >>>>>>


 Setting tolerance for linear dependence to 1.00D-05






 Setting tolerance for linear dependence to 1.00D-05

 Setting tolerance for linear dependence to 1.00D-05
 Setting tolerance for linear dependence to 1.00D-05
 Setting tolerance for linear dependence to 1.00D-05
 Setting tolerance for linear dependence to 1.00D-05
 Setting tolerance for linear dependence to 1.00D-05
 Setting tolerance for linear dependence to 1.00D-05
  lindep tolerance =    1.0000000000000001E-005
  lindep tolerance =    1.0000000000000001E-005
  lindep tolerance =    1.0000000000000001E-005
  lindep tolerance =    1.0000000000000001E-005
  lindep tolerance =    1.0000000000000001E-005
  lindep tolerance =    1.0000000000000001E-005
  lindep tolerance =    1.0000000000000001E-005
  lindep tolerance =    1.0000000000000001E-005


     <<<<<<    Before 3c-2e initialize.   >>>>>>
     <<<<<< date:  Apr 15  time: 00:07:54 >>>>>>


 Setting fock-build task_bf   :      -1
                    maxquartet:   10000
                    maxeri    :  129600
                    maxscr    :       0
                    intacc    : 0.0D+00
                    denscreen : T
                    dentol    : 1.0D-06


      Superposition of Atomic Density Guess
      -------------------------------------

 Sum of atomic energies:         -37.67066074

      Non-variational initial energy
      ------------------------------

 Total energy =     -37.314867
 1-e energy   =     -50.417403
 2-e energy   =      13.102536
 HOMO         =      -0.079421
 LUMO         =      -0.079421


 Setting fock-build task_bf   :      -1
                    maxquartet:   10000
                    maxeri    :  129600
                    maxscr    :       0
                    intacc    : 0.0D+00
                    denscreen : T
                    dentol    : 1.0D-06


 Wrote molecular orbitals to ./c.movecs

  WARNING: movecs_in_org=atomic not equal to movecs_in=./c.movecs
   Time after variat. SCF:      0.4

 Setting fock-build task_bf   :      -1
                    maxquartet:   10000
                    maxeri    :  129600
                    maxscr    :       0
                    intacc    : 0.0D+00
                    denscreen : T
                    dentol    : 1.0D-06

   Time prior to 1st pass:      0.4


     <<<<<<      Before SCF iter loop.    >>>>>>
     <<<<<< date:  Apr 15  time: 00:07:54 >>>>>>

           DAMPING=T LEVELSHIFTING=F DIISING=T
          itol2e= 8 iAOacc=12 iXCacc=20


     <<<<<<            calling 1-e int    >>>>>>
     <<<<<< date:  Apr 15  time: 00:07:54 >>>>>>

    Kinetic Matrix Time:          0.0s

           Kinetic energy =     36.962176696628

    Potential Matrix Time:          0.0s


     <<<<<<    Before call to GETVXC.     >>>>>>
     <<<<<< date:  Apr 15  time: 00:07:54 >>>>>>



     <<<<<<    Before call to fock_2e.    >>>>>>
     <<<<<< date:  Apr 15  time: 00:07:54 >>>>>>



     <<<<<<     After call to fock_2e.    >>>>>>
     <<<<<< date:  Apr 15  time: 00:07:54 >>>>>>

    Fock_2e Build Time:          0.1s
  *** grid_quadv0:                    calc_type:                    1
  *** grid_quadv0:                    grid_written: F
  *** grid_quadv0:                    grad: T
  *** grid_quadv0:                    kske: F
  *** grid_quadv0:                    kslap: F
  *** grid_quadv0:                    do_scf: T
  *** grid_quadv0:                    fde_option:                    0
  *** grid_quadv0:                    calc_type:                    1
  *** grid_quadv0:                    grid_written: F
  *** grid_quadv0:                    grad: T
  *** grid_quadv0:                    kske: F
  *** grid_quadv0:                    calc_type:                    1
  *** grid_quadv0:                    grid_written: F
  *** grid_quadv0:                    grad: T
  *** grid_quadv0:                    kske: F
  *** grid_quadv0:                    kslap: F
  *** grid_quadv0:                    do_scf: T
  *** grid_quadv0:                    fde_option:                    0
  *** grid_quadv0:                    n_per_rec:                 3070
  *** grid_quadv0:                    calc_type:                    1
  *** grid_quadv0:                    grid_written: F
  *** grid_quadv0:                    grad: T
  *** grid_quadv0:                    kske: F
  *** grid_quadv0:                    kslap: F
  *** grid_quadv0:                    do_scf: T
  *** grid_quadv0:                    fde_option:                    0
  *** grid_quadv0:                    n_per_rec:                 3070
  *** grid_quadv0:                    calc_type:                    1
  *** grid_quadv0:                    grid_written: F
  *** grid_quadv0:                    grad: T
  *** grid_quadv0:                    kske: F
  *** grid_quadv0:                    kslap: F
  *** grid_quadv0:                    do_scf: T
  *** grid_quadv0:                    fde_option:                    0
  *** grid_quadv0:                    n_per_rec:                 3070
  *** grid_quadv0:                    n_per_rec:                 3070
  *** grid_quadv0:                    kslap: F
  *** grid_quadv0:                    do_scf: T
  *** grid_quadv0:                    fde_option:                    0
  *** grid_quadv0:                    n_per_rec:                 3070
  *** grid_quadv0:                    calc_type:                    1
  *** grid_quadv0:                    grid_written: F
  *** grid_quadv0:                    grad: T
  *** grid_quadv0:                    kske: F
  *** grid_quadv0:                    kslap: F
  *** grid_quadv0:                    do_scf: T
  *** grid_quadv0:                    fde_option:                    0
  *** grid_quadv0:                    n_per_rec:                 3070
  *** grid_quadv0:                    calc_type:                    1
  *** grid_quadv0:                    grid_written: F
  *** grid_quadv0:                    grad: T
  *** grid_quadv0:                    kske: F
  *** grid_quadv0:                    kslap: F
  *** grid_quadv0:                    do_scf: T
  *** grid_quadv0:                    fde_option:                    0
  *** grid_quadv0:                    n_per_rec:                 3070
  *** grid_quadv0:                    calc_type:                    1
  *** grid_quadv0:                    grid_written: F
  *** grid_quadv0:                    grad: T
  *** grid_quadv0:                    kske: F
  *** grid_quadv0:                    kslap: F
  *** grid_quadv0:                    do_scf: T
  *** grid_quadv0:                    fde_option:                    0
  *** grid_quadv0:                    n_per_rec:                 3070
   0: nuse=   8 avail= 12500000Mb on .
   3: nuse=   8 avail= 12500000Mb on .
   4: nuse=   8 avail= 12500000Mb on .
   6: nuse=   8 avail= 12500000Mb on .
   7: nuse=   8 avail= 12500000Mb on .
   1: nuse=   8 avail= 12500000Mb on .
   2: nuse=   8 avail= 12500000Mb on .
   5: nuse=   8 avail= 12500000Mb on .
 l_cube input   11.00

  atom type   l_cube   no. cubes   segmts   rad   sub
 ----------- -------- ----------- -------- ----- -----
        1     12.67        34         3      19     8

 Grid_pts file          = ./c.gridpts.0
 Record size in doubles =  12289        No. of grid_pts per rec  =   3070
 Max. records in memory =      8        Max. recs in file   = 126656358

 me   0 NQTOTC NQ/cube   14031     738
 me   1 NQTOTC NQ/cube    8227    2742
 me   2 NQTOTC NQ/cube    8023    4011
 me   3 NQTOTC NQ/cube    8664    4332
 me   4 NQTOTC NQ/cube    9062    4531
 me   5 NQTOTC NQ/cube    7471    3735
 me   6 NQTOTC NQ/cube    8047    4023
 me   7 NQTOTC NQ/cube    7319    3659

 XC quadr. integrated density :       6.000000 npts:    70694 nctrs:        1

    Fock_xc Build Time:          0.1s


     <<<<<<    Before call to GETVCOUL.   >>>>>>
     <<<<<< date:  Apr 15  time: 00:07:54 >>>>>>



     <<<<<<    End of parallel region.    >>>>>>
     <<<<<< date:  Apr 15  time: 00:07:54 >>>>>>

    Total Fock Matrix Build Time:          0.2s
 Etnew, Ecore, Ecoul, Exc(1), Exc(2), Totsic:   -37.758315520818712       -49.551891493203613        16.800722580636364       -5.0071466082514640        0.0000000000000000        0.0000000000000000     
  delta =   -37.758315520818712     
  delta =   -37.758315520818712     


         Total DFT energy =      -37.758315520819
      One electron energy =      -49.551891493204
  delta =   -37.758315520818712     
  delta =   -37.758315520818712     
  delta =   -37.758315520818712     
  delta =   -37.758315520818712     
  delta =   -37.758315520818712     
  delta =   -37.758315520818712     
           Coulomb energy =       16.800722580636
    Exchange-Corr. energy =       -5.007146608251
 Nuclear repulsion energy =        0.000000000000

 Numeric. integr. density =        5.999999995321

     Total iterative time =      1.5s




     <<<<<<        calling diis driver    >>>>>>
     <<<<<< date:  Apr 15  time: 00:07:54 >>>>>>

 nhist                     1  pulay matrix 
   0.0000E+00
  -1.0000E+00   1.2355E-01


     <<<<<<         called diis driver    >>>>>>
     <<<<<< date:  Apr 15  time: 00:07:54 >>>>>>


 global array: fock transf[1:55,1:55],  handle: -940 

            1           2           3           4           5           6  
       ----------- ----------- ----------- ----------- ----------- -----------
   1       3.80895     0.00000     0.00000    -0.00000    -2.75377     0.00000
   2       0.00000     6.64919    -0.00019     0.00069     0.00000    -0.47083
   3       0.00000    -0.00019     6.65120     0.00006     0.00000     0.09616
   4      -0.00000     0.00069     0.00006     6.65110    -0.00000     0.90593
   5      -2.75377     0.00000     0.00000    -0.00000     4.99082     0.00000
   6       0.00000    -0.47083     0.09616     0.90593     0.00000     1.39264
   7       0.00000     0.39194    -0.89876     0.29881     0.00000     0.00072
   8       0.00000    -0.82296    -0.48322    -0.37542     0.00000    -0.00214
   9       0.39807     0.00000     0.00000    -0.00000    -1.00121     0.00000
  10       0.00000     0.00002    -0.00058     0.00018     0.00000    -0.00002
  11      -0.00000     0.00002     0.00037     0.00034    -0.00000    -0.00011
  12      -0.00000    -0.00014     0.00031    -0.00003    -0.00000    -0.00019
  13      -0.00000    -0.00006    -0.00030    -0.00025    -0.00000    -0.00023
  14       0.67466    -0.00000    -0.00000     0.00000    -0.62282    -0.00000
  15       0.00000    -0.11175     0.00592     0.02427     0.00000    -0.25170
  16       0.00000     0.01450    -0.07373     0.08670     0.00000    -0.21810
  17       0.00000    -0.01972    -0.08834    -0.07060     0.00000     0.21254
  18      -0.00038    -0.00000     0.00000     0.00000     0.00029    -0.00000
  19      -0.00023    -0.00000     0.00000    -0.00000     0.00018     0.00000
  20       0.00079    -0.00000    -0.00000    -0.00000    -0.00061     0.00000
  21      -0.00000    -0.00096    -0.00102     0.00059    -0.00000     0.00059
  22      -0.00023     0.00000     0.00000    -0.00000     0.00018     0.00000
  23      -0.00049     0.00000     0.00000    -0.00000     0.00038     0.00000
  24      -0.00000     0.00176    -0.00039    -0.00038    -0.00000    -0.00080
  25      -0.00000    -0.00072    -0.00035    -0.00021    -0.00000     0.00009
  26       0.00000    -0.00118     0.00064     0.00098     0.00000     0.00084
  27      -0.00002     0.00000    -0.00000     0.00000     0.00003    -0.00000
  28       0.00036     0.00000    -0.00000    -0.00000    -0.00078     0.00000
  29      -0.00065     0.00000    -0.00000    -0.00000     0.00143     0.00000
  30      -0.00000    -0.01131    -0.06623     0.02628    -0.00000     0.15138
  31      -0.00000     0.01569    -0.02851    -0.06531    -0.00000    -0.45519
  32       0.00000    -0.07130     0.00481    -0.02010     0.00000     0.10322
  33      -0.00000     0.01341    -0.29142     0.11760    -0.00000     0.14170
  34       0.00000    -0.11028     0.10571     0.27567     0.00000     0.61324
  35       0.00000     0.29662     0.05329     0.09439     0.00000    -0.09302
  36      -0.12874     0.00000     0.00000    -0.00000     0.45357     0.00000
  37      -0.00021    -0.00000     0.00000    -0.00000     0.00046     0.00000
  38      -0.00039    -0.00000    -0.00000     0.00000     0.00085    -0.00000
  39       0.00028    -0.00000     0.00000    -0.00000    -0.00001     0.00000
  40       0.00029     0.00000    -0.00000    -0.00000    -0.00001     0.00000
  41       0.00052    -0.00000     0.00000     0.00000    -0.00001    -0.00000
  42      -0.00000     0.02386     0.05927     0.00624    -0.00000     0.00100
  43      -0.00000    -0.05772     0.02374    -0.01717    -0.00000     0.02167
  44       0.00000    -0.02061     0.00040     0.06113     0.00000     0.10658
  45       0.00038     0.00000     0.00000    -0.00000    -0.00001     0.00000
  46       0.00008     0.00000     0.00000    -0.00000    -0.00000     0.00000
  47      -0.01271     0.00000     0.00000    -0.00000     0.31264     0.00000
  48      -0.00000    -0.03517     0.00690    -0.12512    -0.00000    -0.10892
  49       0.00000    -0.00354    -0.12994    -0.00618     0.00000    -0.01843
  50      -0.00000     0.12163    -0.00239    -0.03417    -0.00000    -0.10247
  51       0.18251     0.00000     0.00000    -0.00000    -0.36289     0.00000
  52       0.00000     0.00310     0.06292     0.03277     0.00000     0.01861
  53       0.00000     0.01267     0.03121    -0.06061     0.00000    -0.03220
  54       0.00000    -0.06301     0.01042    -0.01458     0.00000     0.01105
  55      -0.09525     0.00000     0.00000    -0.00000     0.14906     0.00000

            7           8           9          10          11          12  
       ----------- ----------- ----------- ----------- ----------- -----------
   1       0.00000     0.00000     0.39807     0.00000    -0.00000    -0.00000
   2       0.39194    -0.82296     0.00000     0.00002     0.00002    -0.00014
   3      -0.89876    -0.48322     0.00000    -0.00058     0.00037     0.00031
   4       0.29881    -0.37542    -0.00000     0.00018     0.00034    -0.00003
   5       0.00000     0.00000    -1.00121     0.00000    -0.00000    -0.00000
   6       0.00072    -0.00214     0.00000    -0.00002    -0.00011    -0.00019
   7       1.39437     0.00065     0.00000     0.00068    -0.00008    -0.00011
   8       0.00065     1.39248     0.00000     0.00009    -0.00035    -0.00044
   9       0.00000     0.00000     0.80162     0.00000    -0.00000    -0.00000
  10       0.00068     0.00009     0.00000     2.49707     0.00013     0.00046
  11      -0.00008    -0.00035    -0.00000     0.00013     2.49722    -0.00139
  12      -0.00011    -0.00044    -0.00000     0.00046    -0.00139     2.49717
  13       0.00019     0.00027     0.00000     0.00040     0.00101    -0.00077
  14      -0.00000    -0.00000     1.25970    -0.00000     0.00000     0.00000
  15       0.14180    -0.26997     0.00000    -0.00094    -0.00013    -0.00081
  16      -0.32748     0.03073     0.00000    -0.00193     0.00047    -0.00035
  17      -0.16776    -0.28681     0.00000    -0.00124    -0.00048     0.00080
  18       0.00000    -0.00000    -0.00040    -0.00000    -0.00000    -0.00000
  19       0.00000    -0.00000    -0.00025    -0.00000    -0.00000    -0.00000
  20      -0.00000    -0.00000     0.00084    -0.00000     0.00000     0.00000
  21       0.00050     0.00074    -0.00000     0.98480     0.00021     0.00046
  22       0.00000     0.00000    -0.00025    -0.00000     0.00000    -0.00000
  23       0.00000     0.00000    -0.00052    -0.00000    -0.00000    -0.00000
  24       0.00054    -0.00062    -0.00000    -0.00038     0.14274    -0.95486
  25       0.00003     0.00051     0.00000     0.00029     0.08437     0.20993
  26      -0.00047     0.00025     0.00000     0.00024     0.97084     0.12072
  27      -0.00000     0.00000     0.00000    -0.00000    -0.00000    -0.00000
  28       0.00000    -0.00000    -0.00008    -0.00000     0.00000     0.00000
  29      -0.00000    -0.00000     0.00015     0.00000    -0.00000     0.00000
  30       0.41600     0.21075    -0.00000     0.00203    -0.00038    -0.00032
  31       0.08247     0.16420    -0.00000    -0.00006    -0.00070    -0.00089
  32      -0.24708     0.41233     0.00000     0.00046     0.00048     0.00105
  33       0.59668     0.16758    -0.00000     0.00088    -0.00045    -0.00072
  34      -0.10935    -0.12881     0.00000     0.00012     0.00219     0.00059
  35       0.19040    -0.60007     0.00000    -0.00018     0.00026    -0.00135
  36       0.00000     0.00000    -0.39576     0.00000    -0.00000    -0.00000
  37       0.00000     0.00000     0.00005    -0.00000    -0.00000     0.00000
  38      -0.00000    -0.00000     0.00009    -0.00000    -0.00000     0.00000
  39       0.00000    -0.00000    -0.00014     0.00000    -0.00000    -0.00000
  40      -0.00000    -0.00000    -0.00014     0.00000    -0.00000    -0.00000
  41       0.00000     0.00000    -0.00026    -0.00000    -0.00000     0.00000
  42      -0.06937    -0.08297    -0.00000    -0.00071     0.00026    -0.00036
  43      -0.08103     0.06944    -0.00000     0.00027     0.00061     0.00148
  44       0.01654    -0.01144     0.00000     0.00058     0.00115     0.00077
  45       0.00000     0.00000    -0.00019    -0.00000    -0.00000     0.00000
  46       0.00000     0.00000    -0.00004     0.00000     0.00000     0.00000
  47       0.00000     0.00000    -0.08516     0.00000    -0.00000    -0.00000
  48      -0.06502     0.08234    -0.00000    -0.00038    -0.00081     0.00028
  49       0.12841     0.07716     0.00000     0.00099    -0.00092    -0.00066
  50       0.04556    -0.09987    -0.00000     0.00034     0.00009     0.00025
  51       0.00000     0.00000     0.13941     0.00000    -0.00000    -0.00000
  52      -0.02449    -0.02440     0.00000    -0.00080     0.00119     0.00049
  53      -0.02194    -0.00229     0.00000    -0.00072    -0.00038     0.00037
  54      -0.02135     0.03008     0.00000    -0.00037    -0.00013     0.00037
  55       0.00000     0.00000    -0.08044     0.00000     0.00000    -0.00000

           13          14          15          16          17          18  
       ----------- ----------- ----------- ----------- ----------- -----------
   1      -0.00000     0.67466     0.00000     0.00000     0.00000    -0.00038
   2      -0.00006    -0.00000    -0.11175     0.01450    -0.01972    -0.00000
   3      -0.00030    -0.00000     0.00592    -0.07373    -0.08834     0.00000
   4      -0.00025     0.00000     0.02427     0.08670    -0.07060     0.00000
   5      -0.00000    -0.62282     0.00000     0.00000     0.00000     0.00029
   6      -0.00023    -0.00000    -0.25170    -0.21810     0.21254    -0.00000
   7       0.00019    -0.00000     0.14180    -0.32748    -0.16776     0.00000
   8       0.00027    -0.00000    -0.26997     0.03073    -0.28681    -0.00000
   9       0.00000     1.25970     0.00000     0.00000     0.00000    -0.00040
  10       0.00040    -0.00000    -0.00094    -0.00193    -0.00124    -0.00000
  11       0.00101     0.00000    -0.00013     0.00047    -0.00048    -0.00000
  12      -0.00077     0.00000    -0.00081    -0.00035     0.00080    -0.00000
  13       2.49614     0.00000    -0.00008    -0.00016    -0.00111     0.00000
  14       0.00000     5.81895    -0.00000    -0.00000    -0.00000    -0.00154
  15      -0.00008    -0.00000     2.34987    -0.00001     0.00051    -0.00000
  16      -0.00016    -0.00000    -0.00001     2.35193    -0.00023     0.00000
  17      -0.00111    -0.00000     0.00051    -0.00023     2.35121     0.00000
  18       0.00000    -0.00154    -0.00000     0.00000     0.00000     1.89532
  19      -0.00000    -0.00094    -0.00000     0.00000    -0.00000    -0.00060
  20      -0.00000     0.00321    -0.00000     0.00000    -0.00000    -0.00084
  21       0.00018     0.00000    -0.00039    -0.00104    -0.00082     0.00000
  22      -0.00000    -0.00095     0.00000     0.00000     0.00000     0.00069
  23       0.00000    -0.00197     0.00000     0.00000     0.00000     0.00102
  24       0.19738     0.00000     0.00007     0.00001    -0.00066     0.00000
  25       0.95791     0.00000     0.00000    -0.00010    -0.00054    -0.00000
  26      -0.11091    -0.00000     0.00009     0.00050    -0.00014     0.00000
  27       0.00000    -0.00010     0.00000    -0.00000     0.00000     0.50190
  28      -0.00000     0.00230     0.00000     0.00000    -0.00000     0.54787
  29       0.00000    -0.00422     0.00000     0.00000    -0.00000     0.81412
  30       0.00063     0.00000    -0.13565    -0.61371    -0.37006    -0.00000
  31       0.00079     0.00000     0.30842     0.29085    -0.59434    -0.00000
  32       0.00028    -0.00000    -0.64669     0.26868    -0.20657     0.00000
  33       0.00022     0.00000    -0.00887     0.60987     0.32680    -0.00000
  34      -0.00058    -0.00000     0.37206     0.27927    -0.51049     0.00000
  35      -0.00040    -0.00000    -0.58220     0.16558    -0.33067    -0.00000
  36       0.00000    -0.11334     0.00000     0.00000     0.00000     0.00018
  37       0.00000    -0.00135    -0.00000     0.00000     0.00000     0.00029
  38       0.00000    -0.00252    -0.00000    -0.00000    -0.00000     0.00024
  39       0.00000    -0.00162    -0.00000     0.00000    -0.00000     0.14637
  40       0.00000    -0.00167     0.00000     0.00000    -0.00000    -0.16568
  41      -0.00000    -0.00298    -0.00000    -0.00000     0.00000     0.15667
  42      -0.00034     0.00000    -0.01704    -0.02927    -0.05084    -0.00000
  43       0.00011     0.00000     0.04908    -0.03335     0.00175    -0.00000
  44      -0.00021    -0.00000     0.03013     0.04138    -0.03260    -0.00000
  45       0.00000    -0.00220     0.00000     0.00000     0.00000    -0.00025
  46      -0.00000    -0.00045     0.00000     0.00000     0.00000    -0.00004
  47       0.00000     1.21049     0.00000     0.00000     0.00000    -0.00006
  48       0.00048     0.00000     0.00806    -0.10974     0.08226     0.00000
  49       0.00057    -0.00000    -0.00415     0.08373     0.11135     0.00000
  50       0.00007     0.00000    -0.13892    -0.00995     0.00175     0.00000
  51       0.00000    -0.00659     0.00000     0.00000     0.00000     0.00153
  52      -0.00075    -0.00000     0.00612    -0.01319    -0.05677     0.00000
  53       0.00018    -0.00000    -0.02403    -0.05305     0.00819    -0.00000
  54       0.00013    -0.00000     0.05482    -0.01990     0.00964     0.00000
  55       0.00000    -0.12385     0.00000     0.00000     0.00000     0.00028

           19          20          21          22          23          24  
       ----------- ----------- ----------- ----------- ----------- -----------
   1      -0.00023     0.00079    -0.00000    -0.00023    -0.00049    -0.00000
   2      -0.00000    -0.00000    -0.00096     0.00000     0.00000     0.00176
   3       0.00000    -0.00000    -0.00102     0.00000     0.00000    -0.00039
   4      -0.00000    -0.00000     0.00059    -0.00000    -0.00000    -0.00038
   5       0.00018    -0.00061    -0.00000     0.00018     0.00038    -0.00000
   6       0.00000     0.00000     0.00059     0.00000     0.00000    -0.00080
   7       0.00000    -0.00000     0.00050     0.00000     0.00000     0.00054
   8      -0.00000    -0.00000     0.00074     0.00000     0.00000    -0.00062
   9      -0.00025     0.00084    -0.00000    -0.00025    -0.00052    -0.00000
  10      -0.00000    -0.00000     0.98480    -0.00000    -0.00000    -0.00038
  11      -0.00000     0.00000     0.00021     0.00000    -0.00000     0.14274
  12      -0.00000     0.00000     0.00046    -0.00000    -0.00000    -0.95486
  13      -0.00000    -0.00000     0.00018    -0.00000     0.00000     0.19738
  14      -0.00094     0.00321     0.00000    -0.00095    -0.00197     0.00000
  15      -0.00000    -0.00000    -0.00039     0.00000     0.00000     0.00007
  16       0.00000     0.00000    -0.00104     0.00000     0.00000     0.00001
  17      -0.00000    -0.00000    -0.00082     0.00000     0.00000    -0.00066
  18      -0.00060    -0.00084     0.00000     0.00069     0.00102     0.00000
  19       1.89712    -0.00056     0.00000     0.00053    -0.00007    -0.00000
  20      -0.00056     1.89742     0.00000     0.00055    -0.00101    -0.00000
  21       0.00000     0.00000     1.63709    -0.00000    -0.00000    -0.00078
  22       0.00053     0.00055    -0.00000     1.89652     0.00103    -0.00000
  23      -0.00007    -0.00101    -0.00000     0.00103     1.89554     0.00000
  24      -0.00000    -0.00000    -0.00078    -0.00000     0.00000     1.63815
  25      -0.00000    -0.00000     0.00091    -0.00000    -0.00000     0.00033
  26       0.00000    -0.00000     0.00040    -0.00000     0.00000     0.00021
  27       0.86190     0.46637     0.00000    -0.00071     0.00007     0.00000
  28      -0.68022     0.67060     0.00000    -0.00090    -0.00127     0.00000
  29      -0.07088    -0.74216    -0.00000     0.00108     0.00132    -0.00000
  30      -0.00000     0.00000     0.00160    -0.00000    -0.00000     0.00088
  31       0.00000     0.00000     0.00027    -0.00000    -0.00000     0.00042
  32       0.00000     0.00000    -0.00016     0.00000     0.00000    -0.00036
  33      -0.00000     0.00000     0.00058    -0.00000    -0.00000     0.00026
  34      -0.00000    -0.00000     0.00016     0.00000     0.00000    -0.00030
  35      -0.00000    -0.00000    -0.00013     0.00000     0.00000     0.00079
  36       0.00011    -0.00037    -0.00000     0.00011     0.00023    -0.00000
  37       0.00065    -0.00039    -0.00000    -0.64977     0.89010    -0.00000
  38       0.00040    -0.00223    -0.00000     0.88849     0.65076    -0.00000
  39       0.22802     0.00422     0.00000    -0.00010    -0.00028     0.00000
  40       0.10937    -0.18448    -0.00000    -0.00019    -0.00031    -0.00000
  41      -0.09800    -0.19753    -0.00000    -0.00028    -0.00048    -0.00000
  42       0.00000     0.00000    -0.00064    -0.00000    -0.00000    -0.00020
  43      -0.00000    -0.00000    -0.00038    -0.00000    -0.00000    -0.00044
  44       0.00000     0.00000     0.00025     0.00000     0.00000    -0.00002
  45      -0.00019     0.00063    -0.00000     0.06648     0.26250    -0.00000
  46      -0.00001     0.00019    -0.00000     0.26290    -0.06663     0.00000
  47      -0.00004     0.00012    -0.00000    -0.00004    -0.00008     0.00000
  48      -0.00000    -0.00000    -0.00028    -0.00000    -0.00000    -0.00019
  49      -0.00000    -0.00000     0.00072     0.00000     0.00000     0.00043
  50       0.00000     0.00000     0.00016    -0.00000    -0.00000    -0.00003
  51       0.00093    -0.00318    -0.00000     0.00094     0.00195    -0.00000
  52      -0.00000    -0.00000    -0.00071     0.00000     0.00000    -0.00032
  53       0.00000    -0.00000     0.00007     0.00000     0.00000    -0.00134
  54       0.00000     0.00000    -0.00150     0.00000     0.00000     0.00158
  55       0.00017    -0.00058    -0.00000     0.00017     0.00036     0.00000

           25          26          27          28          29          30  
       ----------- ----------- ----------- ----------- ----------- -----------
   1      -0.00000     0.00000    -0.00002     0.00036    -0.00065    -0.00000
   2      -0.00072    -0.00118     0.00000     0.00000     0.00000    -0.01131
   3      -0.00035     0.00064    -0.00000    -0.00000    -0.00000    -0.06623
   4      -0.00021     0.00098     0.00000    -0.00000    -0.00000     0.02628
   5      -0.00000     0.00000     0.00003    -0.00078     0.00143    -0.00000
   6       0.00009     0.00084    -0.00000     0.00000     0.00000     0.15138
   7       0.00003    -0.00047    -0.00000     0.00000    -0.00000     0.41600
   8       0.00051     0.00025     0.00000    -0.00000    -0.00000     0.21075
   9       0.00000     0.00000     0.00000    -0.00008     0.00015    -0.00000
  10       0.00029     0.00024    -0.00000    -0.00000     0.00000     0.00203
  11       0.08437     0.97084    -0.00000     0.00000    -0.00000    -0.00038
  12       0.20993     0.12072    -0.00000     0.00000     0.00000    -0.00032
  13       0.95791    -0.11091     0.00000    -0.00000     0.00000     0.00063
  14       0.00000    -0.00000    -0.00010     0.00230    -0.00422     0.00000
  15       0.00000     0.00009     0.00000     0.00000     0.00000    -0.13565
  16      -0.00010     0.00050    -0.00000     0.00000     0.00000    -0.61371
  17      -0.00054    -0.00014     0.00000    -0.00000    -0.00000    -0.37006
  18      -0.00000     0.00000     0.50190     0.54787     0.81412    -0.00000
  19      -0.00000     0.00000     0.86190    -0.68022    -0.07088    -0.00000
  20      -0.00000    -0.00000     0.46637     0.67060    -0.74216     0.00000
  21       0.00091     0.00040     0.00000     0.00000    -0.00000     0.00160
  22      -0.00000    -0.00000    -0.00071    -0.00090     0.00108    -0.00000
  23      -0.00000     0.00000     0.00007    -0.00127     0.00132    -0.00000
  24       0.00033     0.00021     0.00000     0.00000    -0.00000     0.00088
  25       1.63518     0.00070     0.00000    -0.00000    -0.00000     0.00023
  26       0.00070     1.63699    -0.00000    -0.00000     0.00000    -0.00068
  27       0.00000    -0.00000     1.56953    -0.00052    -0.00037     0.00000
  28      -0.00000    -0.00000    -0.00052     1.57055    -0.00092    -0.00000
  29      -0.00000     0.00000    -0.00037    -0.00092     1.57119     0.00000
  30       0.00023    -0.00068     0.00000    -0.00000     0.00000     1.62889
  31       0.00110     0.00013    -0.00000     0.00000     0.00000    -0.00105
  32       0.00067    -0.00023    -0.00000     0.00000    -0.00000     0.00028
  33       0.00010    -0.00032     0.00000    -0.00000     0.00000     0.12656
  34       0.00005     0.00191     0.00000    -0.00000    -0.00000     0.00809
  35      -0.00025     0.00007     0.00000    -0.00000     0.00000    -0.02545
  36       0.00000     0.00000    -0.00006     0.00151    -0.00276    -0.00000
  37       0.00000     0.00000    -0.00032    -0.00029     0.00088    -0.00000
  38       0.00000     0.00000     0.00043    -0.00015     0.00104     0.00000
  39       0.00000     0.00000     0.59612    -0.15911     0.21936    -0.00000
  40       0.00000    -0.00000    -0.16366    -0.63409    -0.01155    -0.00000
  41      -0.00000    -0.00000    -0.21512     0.04326     0.61783    -0.00000
  42      -0.00025     0.00083    -0.00000     0.00000     0.00000    -0.17602
  43       0.00005     0.00018     0.00000    -0.00000     0.00000    -0.06033
  44      -0.00011     0.00105    -0.00000     0.00000     0.00000     0.07833
  45      -0.00000     0.00000     0.00008    -0.00026     0.00093    -0.00000
  46      -0.00000    -0.00000     0.00029     0.00005     0.00003    -0.00000
  47      -0.00000     0.00000    -0.00004     0.00096    -0.00176    -0.00000
  48       0.00033    -0.00059     0.00000    -0.00000    -0.00000     0.00917
  49       0.00025    -0.00073    -0.00000    -0.00000    -0.00000    -0.02383
  50       0.00005    -0.00001    -0.00000    -0.00000    -0.00000     0.00703
  51      -0.00000    -0.00000     0.00003    -0.00074     0.00136    -0.00000
  52      -0.00042     0.00113     0.00000    -0.00000    -0.00000    -0.00654
  53       0.00052     0.00048    -0.00000     0.00000     0.00000    -0.00952
  54      -0.00057    -0.00150    -0.00000     0.00000    -0.00000     0.00247
  55       0.00000     0.00000    -0.00001     0.00022    -0.00040    -0.00000

           31          32          33          34          35          36  
       ----------- ----------- ----------- ----------- ----------- -----------
   1      -0.00000     0.00000    -0.00000     0.00000     0.00000    -0.12874
   2       0.01569    -0.07130     0.01341    -0.11028     0.29662     0.00000
   3      -0.02851     0.00481    -0.29142     0.10571     0.05329     0.00000
   4      -0.06531    -0.02010     0.11760     0.27567     0.09439    -0.00000
   5      -0.00000     0.00000    -0.00000     0.00000     0.00000     0.45357
   6      -0.45519     0.10322     0.14170     0.61324    -0.09302     0.00000
   7       0.08247    -0.24708     0.59668    -0.10935     0.19040     0.00000
   8       0.16420     0.41233     0.16758    -0.12881    -0.60007     0.00000
   9      -0.00000     0.00000    -0.00000     0.00000     0.00000    -0.39576
  10      -0.00006     0.00046     0.00088     0.00012    -0.00018     0.00000
  11      -0.00070     0.00048    -0.00045     0.00219     0.00026    -0.00000
  12      -0.00089     0.00105    -0.00072     0.00059    -0.00135    -0.00000
  13       0.00079     0.00028     0.00022    -0.00058    -0.00040     0.00000
  14       0.00000    -0.00000     0.00000    -0.00000    -0.00000    -0.11334
  15       0.30842    -0.64669    -0.00887     0.37206    -0.58220     0.00000
  16       0.29085     0.26868     0.60987     0.27927     0.16558     0.00000
  17      -0.59434    -0.20657     0.32680    -0.51049    -0.33067     0.00000
  18      -0.00000     0.00000    -0.00000     0.00000    -0.00000     0.00018
  19       0.00000     0.00000    -0.00000    -0.00000    -0.00000     0.00011
  20       0.00000     0.00000     0.00000    -0.00000    -0.00000    -0.00037
  21       0.00027    -0.00016     0.00058     0.00016    -0.00013    -0.00000
  22      -0.00000     0.00000    -0.00000     0.00000     0.00000     0.00011
  23      -0.00000     0.00000    -0.00000     0.00000     0.00000     0.00023
  24       0.00042    -0.00036     0.00026    -0.00030     0.00079    -0.00000
  25       0.00110     0.00067     0.00010     0.00005    -0.00025     0.00000
  26       0.00013    -0.00023    -0.00032     0.00191     0.00007     0.00000
  27      -0.00000    -0.00000     0.00000     0.00000     0.00000    -0.00006
  28       0.00000     0.00000    -0.00000    -0.00000    -0.00000     0.00151
  29       0.00000    -0.00000     0.00000    -0.00000     0.00000    -0.00276
  30      -0.00105     0.00028     0.12656     0.00809    -0.02545    -0.00000
  31       1.62901     0.00083     0.00553    -0.12913    -0.01672    -0.00000
  32       0.00083     1.62998    -0.02711     0.01531    -0.12678     0.00000
  33       0.00553    -0.02711     1.80369     0.00025    -0.00174    -0.00000
  34      -0.12913     0.01531     0.00025     1.80292    -0.00231     0.00000
  35      -0.01672    -0.12678    -0.00174    -0.00231     1.80284     0.00000
  36      -0.00000     0.00000    -0.00000     0.00000     0.00000     0.40113
  37      -0.00000     0.00000    -0.00000     0.00000     0.00000    -0.00088
  38       0.00000    -0.00000     0.00000    -0.00000    -0.00000    -0.00165
  39       0.00000     0.00000    -0.00000    -0.00000    -0.00000     0.00077
  40       0.00000    -0.00000    -0.00000    -0.00000     0.00000     0.00079
  41      -0.00000    -0.00000    -0.00000     0.00000     0.00000     0.00141
  42      -0.07609    -0.06393    -0.65046     0.22344     0.42766    -0.00000
  43      -0.01950     0.19373    -0.39619     0.15391    -0.69211    -0.00000
  44      -0.18723     0.00682     0.27167     0.76384     0.00400     0.00000
  45      -0.00000     0.00000    -0.00000     0.00000     0.00000     0.00104
  46      -0.00000     0.00000    -0.00000     0.00000     0.00000     0.00021
  47      -0.00000     0.00000    -0.00000     0.00000     0.00000     2.14769
  48      -0.01982    -0.01269    -0.10381    -0.18034    -0.13176    -0.00000
  49      -0.01090     0.00028     0.22428    -0.09122    -0.05137     0.00000
  50      -0.01307     0.02433    -0.00903    -0.13561     0.19244    -0.00000
  51      -0.00000     0.00000    -0.00000     0.00000     0.00000    -0.92986
  52      -0.00848    -0.00121    -0.20830     0.22103     0.10625     0.00000
  53       0.00917    -0.00120    -0.23067    -0.21189    -0.00561     0.00000
  54      -0.00429     0.01556    -0.08205     0.05575    -0.27920     0.00000
  55      -0.00000     0.00000    -0.00000     0.00000     0.00000     0.23462

           37          38          39          40          41          42  
       ----------- ----------- ----------- ----------- ----------- -----------
   1      -0.00021    -0.00039     0.00028     0.00029     0.00052    -0.00000
   2      -0.00000    -0.00000    -0.00000     0.00000    -0.00000     0.02386
   3       0.00000    -0.00000     0.00000    -0.00000     0.00000     0.05927
   4      -0.00000     0.00000    -0.00000    -0.00000     0.00000     0.00624
   5       0.00046     0.00085    -0.00001    -0.00001    -0.00001    -0.00000
   6       0.00000    -0.00000     0.00000     0.00000    -0.00000     0.00100
   7       0.00000    -0.00000     0.00000    -0.00000     0.00000    -0.06937
   8       0.00000    -0.00000    -0.00000    -0.00000     0.00000    -0.08297
[...]
  21      -0.00000    -0.00000    -1.08335    -0.00000    -0.00000     0.00002
  22       0.00000    -0.00000     0.00032     0.00000     0.00000    -0.00000
  23       0.00000     0.00000    -1.08370    -0.00000    -0.00000     0.00002
  24      -0.00000     0.00000    -3.37771     0.00000    -0.00001     0.00003
  25      -0.00000    -0.00000    -0.00433     0.00000     0.00000    -0.00000
  26       0.00000     0.00000    -0.00170    -0.00000     0.00000     0.00000
  27       0.00000     0.00000    -3.37615    -0.00000    -0.00001     0.00003
  28      -0.00000     0.00000    -0.00119    -0.00000    -0.00000     0.00000
  29      -0.00000    -0.00000    -3.37486    -0.00000    -0.00001     0.00003
  30      -0.00000     0.00000    -0.28802    -0.00000    -0.00000     0.00002
  31      -0.00000    -0.00000     0.00203    -0.00000    -0.00000     0.00000
  32       0.00000     0.00000     0.00080     0.00000    -0.00000    -0.00000
  33       0.00000     0.00000    -0.28875    -0.00000    -0.00000     0.00002
  34      -0.00000     0.00000     0.00056     0.00000     0.00000    -0.00000
  35      -0.00000    -0.00000    -0.28936     0.00000    -0.00000     0.00002
  36       0.15000     0.14255    -0.00000    -6.61979     4.37907     2.40470
  37      -0.81400    -0.25457    -0.00000    -4.64915    -6.85921    -0.31268
  38       0.44305    -0.90206     0.00001    -1.82360     1.59628    -7.92904
  39       1.15791    -0.17941    -0.00000    -6.61846     4.38417     2.40541
  40       0.00076     2.76142    -0.00000     0.00321    -0.00007     0.00447
  41      -1.60792    -0.24823    -0.00000    -6.62193     4.38043     2.40754
  42      -0.43965     0.30763    -0.00000    -4.65402    -6.85806    -0.31129
  43      -0.83718    -1.70216     0.00001    -1.82476     1.59881    -7.93015
  44       2.13296    -0.66834    -0.00000    -4.65453    -6.85955    -0.31003
  45       0.13138     0.86807     0.00001    -1.82583     1.59795    -7.93162
  46      -0.07003    -0.06655    -0.00000    -3.87407     2.56056     1.40609
  47       0.38003     0.11885    -0.00000    -2.72500    -4.00787    -0.18124
  48      -0.20685     0.42115     0.00001    -1.06887     0.93452    -4.63571
  49      -0.54060     0.08376    -0.00000    -3.87473     2.55796     1.40573
  50      -0.00035    -1.28923     0.00000    -0.00160     0.00004    -0.00228
  51       0.75069     0.11589    -0.00000    -3.87301     2.55987     1.40465
  52       0.20526    -0.14363    -0.00000    -2.72259    -4.00846    -0.18195
  53       0.39086     0.79469     0.00001    -1.06829     0.93323    -4.63515
  54      -0.99582     0.31203    -0.00000    -2.72233    -4.00770    -0.18259
  55      -0.06134    -0.40528     0.00001    -1.06776     0.93367    -4.63439

           55  
       -----------
   1       4.86605
   2      12.20227
   3      -2.93975
   4      10.23971
   5       1.20388
   6       0.00000
   7       0.00000
   8      -0.00002
   9      -0.00002
  10      -0.00001
  11       0.00009
  12      -0.00000
  13      -0.00000
  14       0.00002
  15       0.00000
  16       0.00000
  17      -0.00000
  18      -4.19820
  19       0.00535
  20       0.00210
  21      -4.20013
  22       0.00148
  23      -4.20172
  24      -5.35323
  25      -0.00365
  26      -0.00143
  27      -5.35192
  28      -0.00101
  29      -5.35083
  30      -1.28570
  31       0.00132
  32       0.00052
  33      -1.28618
  34       0.00036
  35      -1.28657
  36       0.00001
  37       0.00001
  38      -0.00004
  39       0.00001
  40       0.00000
  41       0.00001
  42       0.00001
  43      -0.00004
  44       0.00001
  45      -0.00004
  46       0.00001
  47       0.00000
  48      -0.00003
  49       0.00001
  50      -0.00000
  51       0.00001
  52       0.00000
  53      -0.00003
  54       0.00000
  55      -0.00003
  int_init: cando_txs set to always be  F
                                NWChem TDDFT Module
                                -------------------


            General Information
            -------------------
           No. of orbitals :     110
            Alpha orbitals :      55
             Beta orbitals :      55
        Alpha frozen cores :       0
         Beta frozen cores :       0
     Alpha frozen virtuals :       0
      Beta frozen virtuals :       0
         Spin multiplicity :       3
    Number of AO functions :      55
        Use of symmetry is : off
      Symmetry adaption is : off
         Schwarz screening :  0.10D-07

              XC Information
              --------------
              Hartree-Fock (Exact) Exchange   1.00          
              LC-wPBE(h)Exchange Functional   1.00          
     Perdew 1991 LDA Correlation Functional   1.00 local    
    PerdewBurkeErnz. Correlation Functional   1.00 non-local
           Alpha           :  0.00
           Beta            :  1.00
           Gamma           :  0.41

             TDDFT Information
             -----------------
          Calculation type : TDDFT             
         Wavefunction type : Unrestricted
          No. of electrons :       6
           Alpha electrons :       4
            Beta electrons :       2
              No. of roots :       5
          Max subspacesize :    5000
            Max iterations :     100
               Target root :       1
           Target symmetry : none
      Symmetry restriction : off
                 Algorithm : Optimal
        Davidson threshold :  0.10D-03

            Memory Information
            ------------------
          Available GA space size is       52428793950 doubles
          Available MA space size is        4194413092 doubles
          Length of a trial vector is          204     106
          Algorithm : Incore multiple tensor contraction
          Estimated peak GA usage is           6711300 doubles
          Estimated peak MA usage is             18000 doubles

    5 smallest eigenvalue differences (eV) 
--------------------------------------------------------
  No. Spin  Occ  Vir  Irrep   E(Occ)    E(Vir)   E(Diff)
--------------------------------------------------------
    1    1    4    5 a        -0.395    -0.049     9.403
    2    1    3    5 a        -0.395    -0.049     9.403
    3    1    4    6 a        -0.395     0.064    12.494
    4    1    3    6 a        -0.395     0.064    12.494
    5    1    4    7 a        -0.395     0.090    13.189
--------------------------------------------------------

  Entering Davidson iterations
  Unrestricted

  Iter   NTrls   NConv    DeltaV     DeltaE      Time   
  ----  ------  ------  ---------  ---------  --------- 
    1      5       0     0.11E+00   0.10+100        1.8
    2     15       0     0.41E-01   0.18E-01        3.1
    3     25       0     0.33E-01   0.18E-02        3.2
    4     33       0     0.14E-01   0.65E-03        2.7
    5     41       2     0.13E-02   0.64E-04        2.8
    6     47       2     0.39E-03   0.89E-06        2.3
    7     53       5     0.65E-04   0.78E-07        2.3
  ----  ------  ------  ---------  ---------  --------- 
  Convergence criterion met

  Ground state a         -37.817812373958 a.u.
  <S2> =   2.0032

  ----------------------------------------------------------------------------
  Root   1         a              0.000150143 a.u.                0.0041 eV 
  <S2> =   2.0034
  ----------------------------------------------------------------------------
     Transition Moments    X  0.00000   Y  0.00000   Z  0.00000
     Transition Moments   XX -5.82263  XY  1.43066  XZ  0.89234
     Transition Moments   YY  4.88799  YZ  2.15007  ZZ  0.93465
     Dipole Oscillator Strength                    0.0000000000
     Electric Quadrupole                           0.0000000000
     Magnetic Dipole                               0.0000000000
     Total Oscillator Strength                     0.0000000000

     Occ.    2 alpha a   ---  Virt.   11 alpha a    0.09133 X
     Occ.    2 alpha a   ---  Virt.   11 alpha a    0.09123 Y
     Occ.    2 alpha a   ---  Virt.   21 alpha a   -0.06763 X
     Occ.    2 alpha a   ---  Virt.   21 alpha a   -0.06759 Y
     Occ.    2 alpha a   ---  Virt.   22 alpha a    0.05929 X
     Occ.    2 alpha a   ---  Virt.   22 alpha a    0.05925 Y
     Occ.    3 alpha a   ---  Virt.    5 alpha a   -2.22728 X
     Occ.    3 alpha a   ---  Virt.    5 alpha a   -2.16211 Y
     Occ.    3 alpha a   ---  Virt.    9 alpha a    0.39479 X
     Occ.    3 alpha a   ---  Virt.    9 alpha a    0.38375 Y
     Occ.    3 alpha a   ---  Virt.   18 alpha a    0.18658 X
     Occ.    3 alpha a   ---  Virt.   18 alpha a    0.18181 Y
     Occ.    4 alpha a   ---  Virt.    5 alpha a   -3.43081 X
     Occ.    4 alpha a   ---  Virt.    5 alpha a   -3.33042 Y
     Occ.    4 alpha a   ---  Virt.    9 alpha a    0.60811 X
     Occ.    4 alpha a   ---  Virt.    9 alpha a    0.59112 Y
     Occ.    4 alpha a   ---  Virt.   18 alpha a    0.28740 X
     Occ.    4 alpha a   ---  Virt.   18 alpha a    0.28004 Y
     Occ.    4 alpha a   ---  Virt.   34 alpha a   -0.06844 X
     Occ.    4 alpha a   ---  Virt.   34 alpha a   -0.06699 Y
     Occ.    2 beta  a   ---  Virt.   11 beta  a   -0.10862 X
     Occ.    2 beta  a   ---  Virt.   11 beta  a   -0.10855 Y
     Occ.    2 beta  a   ---  Virt.   20 beta  a   -0.17625 X
     Occ.    2 beta  a   ---  Virt.   20 beta  a   -0.17621 Y
     Occ.    2 beta  a   ---  Virt.   21 beta  a    0.07436 X
     Occ.    2 beta  a   ---  Virt.   21 beta  a    0.07434 Y
     Occ.    2 beta  a   ---  Virt.   40 beta  a   -0.06727 X
     Occ.    2 beta  a   ---  Virt.   40 beta  a   -0.06726 Y
  ----------------------------------------------------------------------------
  Root   2         a              0.000164881 a.u.                0.0045 eV 
  <S2> =   2.0034
  ----------------------------------------------------------------------------
     Transition Moments    X -0.00000   Y -0.00000   Z -0.00000
     Transition Moments   XX -0.35453  XY  1.77755  XZ -4.25531
     Transition Moments   YY  2.67401  YZ -2.43224  ZZ -2.31949
     Dipole Oscillator Strength                    0.0000000000
     Electric Quadrupole                           0.0000000000
     Magnetic Dipole                               0.0000000000
     Total Oscillator Strength                     0.0000000000

     Occ.    2 alpha a   ---  Virt.   12 alpha a    0.08715 X
     Occ.    2 alpha a   ---  Virt.   12 alpha a    0.08705 Y
     Occ.    2 alpha a   ---  Virt.   21 alpha a    0.05658 X
     Occ.    2 alpha a   ---  Virt.   21 alpha a    0.05654 Y
     Occ.    2 alpha a   ---  Virt.   22 alpha a    0.06454 X
     Occ.    2 alpha a   ---  Virt.   22 alpha a    0.06449 Y
     Occ.    3 alpha a   ---  Virt.    5 alpha a    3.27861 X
     Occ.    3 alpha a   ---  Virt.    5 alpha a    3.17342 Y
     Occ.    3 alpha a   ---  Virt.    9 alpha a   -0.58110 X
     Occ.    3 alpha a   ---  Virt.    9 alpha a   -0.56329 Y
     Occ.    3 alpha a   ---  Virt.   18 alpha a   -0.27460 X
     Occ.    3 alpha a   ---  Virt.   18 alpha a   -0.26689 Y
     Occ.    3 alpha a   ---  Virt.   34 alpha a    0.06538 X
     Occ.    3 alpha a   ---  Virt.   34 alpha a    0.06385 Y
     Occ.    4 alpha a   ---  Virt.    5 alpha a   -2.12844 X
     Occ.    4 alpha a   ---  Virt.    5 alpha a   -2.06015 Y
     Occ.    4 alpha a   ---  Virt.    9 alpha a    0.37724 X
     Occ.    4 alpha a   ---  Virt.    9 alpha a    0.36568 Y
     Occ.    4 alpha a   ---  Virt.   18 alpha a    0.17827 X
     Occ.    4 alpha a   ---  Virt.   18 alpha a    0.17326 Y
     Occ.    2 beta  a   ---  Virt.   12 beta  a   -0.10365 X
     Occ.    2 beta  a   ---  Virt.   12 beta  a   -0.10359 Y
     Occ.    2 beta  a   ---  Virt.   20 beta  a   -0.07096 X
     Occ.    2 beta  a   ---  Virt.   20 beta  a   -0.07094 Y
     Occ.    2 beta  a   ---  Virt.   21 beta  a   -0.16819 X
     Occ.    2 beta  a   ---  Virt.   21 beta  a   -0.16815 Y
     Occ.    2 beta  a   ---  Virt.   41 beta  a   -0.06419 X
     Occ.    2 beta  a   ---  Virt.   41 beta  a   -0.06419 Y
  ----------------------------------------------------------------------------
  Root   3         a              0.270783987 a.u.                7.3684 eV 
  <S2> =   2.0052
  ----------------------------------------------------------------------------
     Transition Moments    X  0.37309   Y -0.57894   Z  0.12274
     Transition Moments   XX  0.00000  XY  0.00000  XZ  0.00000
     Transition Moments   YY  0.00000  YZ -0.00000  ZZ  0.00000
     Dipole Oscillator Strength                    0.0883539163
     Electric Quadrupole                           0.0000000000
     Magnetic Dipole                               0.0000000000
     Total Oscillator Strength                     0.0883539163

     Occ.    4 alpha a   ---  Virt.    6 alpha a    0.94594 X
     Occ.    4 alpha a   ---  Virt.   10 alpha a   -0.22929 X
     Occ.    4 alpha a   ---  Virt.   15 alpha a   -0.06360 X
     Occ.    2 beta  a   ---  Virt.    4 beta  a    0.18513 X
     Occ.    2 beta  a   ---  Virt.    8 beta  a    0.09323 X
  ----------------------------------------------------------------------------
  Root   4         a              0.270784150 a.u.                7.3684 eV 
  <S2> =   2.0052
  ----------------------------------------------------------------------------
     Transition Moments    X -0.19624   Y  0.01586   Z  0.67132
     Transition Moments   XX  0.00001  XY  0.00000  XZ -0.00000
     Transition Moments   YY  0.00001  YZ  0.00000  ZZ  0.00001
     Dipole Oscillator Strength                    0.0883539653
     Electric Quadrupole                           0.0000000000
     Magnetic Dipole                               0.0000000000
     Total Oscillator Strength                     0.0883539653

     Occ.    3 alpha a   ---  Virt.    6 alpha a   -0.94594 X
     Occ.    3 alpha a   ---  Virt.   10 alpha a    0.22929 X
     Occ.    3 alpha a   ---  Virt.   15 alpha a    0.06360 X
     Occ.    2 beta  a   ---  Virt.    5 beta  a   -0.18513 X
     Occ.    2 beta  a   ---  Virt.    9 beta  a   -0.09323 X
  ----------------------------------------------------------------------------
  Root   5         a              0.312187025 a.u.                8.4950 eV 
  <S2> =   2.0042
  ----------------------------------------------------------------------------
     Transition Moments    X -0.00000   Y  0.00000   Z -0.00000
     Transition Moments   XX -0.36823  XY  0.31841  XZ  0.52420
     Transition Moments   YY -0.08975  YZ -0.92573  ZZ  0.45886
     Dipole Oscillator Strength                    0.0000000000
     Electric Quadrupole                           0.0000002285
     Magnetic Dipole                               0.0000000000
     Total Oscillator Strength                     0.0000002285

     Occ.    3 alpha a   ---  Virt.    8 alpha a    0.69352 X
     Occ.    3 alpha a   ---  Virt.   17 alpha a    0.13538 X
     Occ.    4 alpha a   ---  Virt.    7 alpha a    0.69354 X
     Occ.    4 alpha a   ---  Virt.   16 alpha a    0.13538 X

              Target root =      1
          Target symmetry = none
      Ground state energy =    -37.817812373958
        Excitation energy =      0.000150143128
     Excited state energy =    -37.817662230830

  stored tddft:energy   -37.817662230829932     

 Task  times  cpu:       17.7s     wall:       20.5s


                                NWChem Input Module
                                -------------------


 Summary of allocated global arrays
-----------------------------------
  No active global arrays


MA_summarize_allocated_blocks: starting scan ...
heap block 'gridpts', handle 124, address 0x1341bba8:
	type of elements:		double precision
	number of elements:		1048465655
	address of client space:	0x1341bc00
	index for client space:		12227287
	total number of bytes:		8387725336
MA_summarize_allocated_blocks: scan completed: 1 heap block, 0 stack blocks
MA usage statistics:

	allocation statistics:
					      heap	     stack
					      ----	     -----
	current number of blocks	         1	         0
	maximum number of blocks	        18	        54
	current total bytes		8387725336	         0
	maximum total bytes		8388517968	  22513208
	maximum total K-bytes		   8388518	     22514
	maximum total M-bytes		      8389	        23


                                     CITATION
                                     --------
                Please cite the following reference when publishing
                           results obtained with NWChem:

          E. Apra, E. J. Bylaska, W. A. de Jong, N. Govind, K. Kowalski,
       T. P. Straatsma, M. Valiev, H. J. J. van Dam, Y. Alexeev, J. Anchell,
       V. Anisimov, F. W. Aquino, R. Atta-Fynn, J. Autschbach, N. P. Bauman,
     J. C. Becca, D. E. Bernholdt, K. Bhaskaran-Nair, S. Bogatko, P. Borowski,
         J. Boschen, J. Brabec, A. Bruner, E. Cauet, Y. Chen, G. N. Chuev,
      C. J. Cramer, J. Daily, M. J. O. Deegan, T. H. Dunning Jr., M. Dupuis,
   K. G. Dyall, G. I. Fann, S. A. Fischer, A. Fonari, H. Fruchtl, L. Gagliardi,
      J. Garza, N. Gawande, S. Ghosh, K. Glaesemann, A. W. Gotz, J. Hammond,
       V. Helms, E. D. Hermes, K. Hirao, S. Hirata, M. Jacquelin, L. Jensen,
   B. G. Johnson, H. Jonsson, R. A. Kendall, M. Klemm, R. Kobayashi, V. Konkov,
      S. Krishnamoorthy, M. Krishnan, Z. Lin, R. D. Lins, R. J. Littlefield,
      A. J. Logsdail, K. Lopata, W. Ma, A. V. Marenich, J. Martin del Campo,
   D. Mejia-Rodriguez, J. E. Moore, J. M. Mullin, T. Nakajima, D. R. Nascimento,
    J. A. Nichols, P. J. Nichols, J. Nieplocha, A. Otero-de-la-Roza, B. Palmer,
    A. Panyala, T. Pirojsirikul, B. Peng, R. Peverati, J. Pittner, L. Pollack,
   R. M. Richard, P. Sadayappan, G. C. Schatz, W. A. Shelton, D. W. Silverstein,
   D. M. A. Smith, T. A. Soares, D. Song, M. Swart, H. L. Taylor, G. S. Thomas,
            V. Tipparaju, D. G. Truhlar, K. Tsemekhman, T. Van Voorhis,
      A. Vazquez-Mayagoitia, P. Verma, O. Villa, A. Vishnu, K. D. Vogiatzis,
        D. Wang, J. H. Weare, M. J. Williamson, T. L. Windus, K. Wolinski,
        A. T. Wong, Q. Wu, C. Yang, Q. Yu, M. Zacharias, Z. Zhang, Y. Zhao,
                                and R. J. Harrison
                        "NWChem: Past, present, and future
                         J. Chem. Phys. 152, 184102 (2020)
                               doi:10.1063/5.0004997

                                      AUTHORS
                                      -------
  E. Apra, E. J. Bylaska, N. Govind, K. Kowalski, M. Valiev, D. Mejia-Rodriguez,
       A. Kunitsa, N. P. Bauman, A. Panyala, W. A. de Jong, T. P. Straatsma,
   H. J. J. van Dam, D. Wang, T. L. Windus, J. Hammond, J. Autschbach, A. Woods,
    K. Bhaskaran-Nair, J. Brabec, K. Lopata, S. A. Fischer, S. Krishnamoorthy,
     M. Jacquelin, W. Ma, M. Klemm, O. Villa, Y. Chen, V. Anisimov, F. Aquino,
     S. Hirata, M. T. Hackler, E. Hermes, L. Jensen, J. E. Moore, J. C. Becca,
      V. Konjkov, T. Risthaus, M. Malagoli, A. Marenich, A. Otero-de-la-Roza,
        J. Mullin, P. Nichols, R. Peverati, J. Pittner, Y. Zhao, P.-D. Fan,
        A. Fonari, M. J. Williamson, R. J. Harrison, J. R. Rehr, M. Dupuis,
     D. Silverstein, D. M. A. Smith, J. Nieplocha, V. Tipparaju, M. Krishnan,
     B. E. Van Kuiken, A. Vazquez-Mayagoitia, M. Swart, Q. Wu, T. Van Voorhis,
     A. A. Auer, M. Nooijen, L. D. Crosby, E. Brown, G. Cisneros, G. I. Fann,
   H. Fruchtl, J. Garza, K. Hirao, R. A. Kendall, J. A. Nichols, K. Tsemekhman,
    K. Wolinski, J. Anchell, D. E. Bernholdt, P. Borowski, T. Clark, D. Clerc,
   H. Dachsel, M. J. O. Deegan, K. Dyall, D. Elwood, E. Glendening, M. Gutowski,
   A. C. Hess, J. Jaffe, B. G. Johnson, J. Ju, R. Kobayashi, R. Kutteh, Z. Lin,
   R. Littlefield, X. Long, B. Meng, T. Nakajima, S. Niu, L. Pollack, M. Rosing,
   K. Glaesemann, G. Sandrone, M. Stave, H. Taylor, G. Thomas, J. H. van Lenthe,
                               A. T. Wong, Z. Zhang.

 Total times  cpu:       17.7s     wall:       21.2s
