 argument  1 = /home/aditisingh4812/nw_chem/nwchem-run/nwchem-run/tddft/open/open_atom/geom-MOL/c.nw
                                         
                                         


             Northwest Computational Chemistry Package (NWChem) 7.2.3
             --------------------------------------------------------


                    Environmental Molecular Sciences Laboratory
                       Pacific Northwest National Laboratory
                                Richland, WA 99352

                              Copyright (c) 1994-2022
                       Pacific Northwest National Laboratory
                            Battelle Memorial Institute

             NWChem is an open-source computational chemistry package
                        distributed under the terms of the
                      Educational Community License (ECL) 2.0
             A copy of the license is included with this distribution
                              in the LICENSE.TXT file

                                  ACKNOWLEDGMENT
                                  --------------

            This software and its documentation were developed at the
            EMSL at Pacific Northwest National Laboratory, a multiprogram
            national laboratory, operated for the U.S. Department of Energy
            by Battelle under Contract Number DE-AC05-76RL01830. Support
            for this work was provided by the Department of Energy Office
            of Biological and Environmental Research, Office of Basic
            Energy Sciences, and the Office of Advanced Scientific Computing.


           Job information
           ---------------

    hostname        = p17
    program         = /home/aditisingh4812/nw_chem/nwchem-7.2.3-release.revision-d690e065-srconly.2024-08-27/nwchem-7.2.3/bin/LINUX64/nwchem
    date            = Thu May  8 11:49:16 2025

    compiled        = Mon_Apr_07_18:51:54_2025
    source          = /home/aditisingh4812/nw_chem/nwchem-7.2.3-release.revision-d690e065-srconly.2024-08-27/nwchem-7.2.3
    nwchem branch   = 7.2.3
    nwchem revision = d690e065
    ga revision     = 5.8.0
    use scalapack   = F
    input           = /home/aditisingh4812/nw_chem/nwchem-run/nwchem-run/tddft/open/open_atom/geom-MOL/c.nw
    prefix          = c.
    data base       = ./c.db
    status          = startup
    nproc           =        8
    time left       =     -1s



           Memory information
           ------------------

    heap     = 2621439998 doubles =  20000.0 Mbytes
    stack    = 2621439995 doubles =  20000.0 Mbytes
    global   = 6553600000 doubles =  50000.0 Mbytes (distinct from heap & stack)
    total    = ********** doubles =  90000.0 Mbytes
    verify   = yes
    hardfail = no 


           Directory information
           ---------------------

  0 permanent = .
  0 scratch   = .




                                NWChem Input Module
                                -------------------



 Scaling coordinates for geometry "geometry" by  1.889725989
 (inverse scale =  0.529177249)



                             Geometry "geometry" -> ""
                             -------------------------

 Output coordinates in angstroms (scale by  1.889725989 to convert to a.u.)

  No.       Tag          Charge          X              Y              Z
 ---- ---------------- ---------- -------------- -------------- --------------
    1 C                    6.0000     0.00000000     0.00000000     0.00000000

      Atomic Mass 
      ----------- 

      C                 12.000000


 Effective nuclear repulsion energy (a.u.)       0.0000000000

            Nuclear Dipole moment (a.u.) 
            ----------------------------
        X                 Y               Z
 ---------------- ---------------- ----------------
     0.0000000000     0.0000000000     0.0000000000


            XYZ format geometry
            -------------------
     1
 geometry
 C                     0.00000000     0.00000000     0.00000000



 Summary of "ao basis" -> "" (cartesian)
 ------------------------------------------------------------------------------
       Tag                 Description            Shells   Functions and Types
 ---------------- ------------------------------  ------  ---------------------
 *                        aug-cc-pVTZ                 on all atoms 


  pbe96 is a nonlocal functional; adding pw91lda local functional. 

                                 NWChem DFT Module
                                 -----------------


                      Basis "ao basis" -> "ao basis" (cartesian)
                      -----
  C (Carbon)
  ----------
            Exponent  Coefficients 
       -------------- ---------------------------------------------------------
  1 S  8.23600000E+03  0.000531
  1 S  1.23500000E+03  0.004108
  1 S  2.80800000E+02  0.021087
  1 S  7.92700000E+01  0.081853
  1 S  2.55900000E+01  0.234817
  1 S  8.99700000E+00  0.434401
  1 S  3.31900000E+00  0.346129
  1 S  3.64300000E-01 -0.008983

  2 S  8.23600000E+03 -0.000113
  2 S  1.23500000E+03 -0.000878
  2 S  2.80800000E+02 -0.004540
  2 S  7.92700000E+01 -0.018133
  2 S  2.55900000E+01 -0.055760
  2 S  8.99700000E+00 -0.126895
  2 S  3.31900000E+00 -0.170352
  2 S  3.64300000E-01  0.598684

  3 S  9.05900000E-01  1.000000

  4 S  1.28500000E-01  1.000000

  5 S  4.40200000E-02  1.000000

  6 P  1.87100000E+01  0.014031
  6 P  4.13300000E+00  0.086866
  6 P  1.20000000E+00  0.290216

  7 P  3.82700000E-01  1.000000

  8 P  1.20900000E-01  1.000000

  9 P  3.56900000E-02  1.000000

 10 D  1.09700000E+00  1.000000

 11 D  3.18000000E-01  1.000000

 12 D  1.00000000E-01  1.000000

 13 F  7.61000000E-01  1.000000

 14 F  2.68000000E-01  1.000000



 Summary of "ao basis" -> "ao basis" (cartesian)
 ------------------------------------------------------------------------------
       Tag                 Description            Shells   Functions and Types
 ---------------- ------------------------------  ------  ---------------------
 C                        aug-cc-pVTZ               14       55   5s4p3d2f




 Summary of "ao basis" -> "ao basis" (cartesian)
 ------------------------------------------------------------------------------
       Tag                 Description            Shells   Functions and Types
 ---------------- ------------------------------  ------  ---------------------
 C                        aug-cc-pVTZ               14       55   5s4p3d2f




                         Geometry "geometry" -> "geometry"
                         ---------------------------------

 Output coordinates in angstroms (scale by  1.889725989 to convert to a.u.)

  No.       Tag          Charge          X              Y              Z
 ---- ---------------- ---------- -------------- -------------- --------------
    1 C                    6.0000     0.00000000     0.00000000     0.00000000

      Atomic Mass 
      ----------- 

      C                 12.000000


 Effective nuclear repulsion energy (a.u.)       0.0000000000

            Nuclear Dipole moment (a.u.) 
            ----------------------------
        X                 Y               Z
 ---------------- ---------------- ----------------
     0.0000000000     0.0000000000     0.0000000000


                      Basis "ao basis" -> "ao basis" (cartesian)
                      -----
  C (Carbon)
  ----------
            Exponent  Coefficients 
       -------------- ---------------------------------------------------------
  1 S  8.23600000E+03  0.334227
  1 S  1.23500000E+03  0.623075
  1 S  2.80800000E+02  1.053106
  1 S  7.92700000E+01  1.583163
  1 S  2.55900000E+01  1.945099
  1 S  8.99700000E+00  1.642947
  1 S  3.31900000E+00  0.619659
  1 S  3.64300000E-01 -0.003067

  2 S  8.23600000E+03 -0.121010
  2 S  1.23500000E+03 -0.226569
  2 S  2.80800000E+02 -0.385753
  2 S  7.92700000E+01 -0.596702
  2 S  2.55900000E+01 -0.785835
  2 S  8.99700000E+00 -0.816533
  2 S  3.31900000E+00 -0.518870
  2 S  3.64300000E-01  0.347735

  3 S  9.05900000E-01  0.661790

  4 S  1.28500000E-01  0.152963

  5 S  4.40200000E-02  0.068493

  6 P  1.87100000E+01  2.186852
  6 P  4.13300000E+00  2.050312
  6 P  1.20000000E+00  1.459945

  7 P  3.82700000E-01  0.429055

  8 P  1.20900000E-01  0.101619

  9 P  3.56900000E-02  0.022112

 10 D  1.09700000E+00  1.935401

 11 D  3.18000000E-01  0.221644

 12 D  1.00000000E-01  0.029269

 13 F  7.61000000E-01  0.796288

 14 F  2.68000000E-01  0.076078



    Basis function labels
    ---------------------
       No.  Atm El Type
       ---  --- -- ----
        1    1 C  s          
        2    1 C  s          
        3    1 C  s          
        4    1 C  s          
        5    1 C  s          
        6    1 C  px         
        7    1 C  py         
        8    1 C  pz         
        9    1 C  px         
       10    1 C  py         
       11    1 C  pz         
       12    1 C  px         
       13    1 C  py         
       14    1 C  pz         
       15    1 C  px         
       16    1 C  py         
       17    1 C  pz         
       18    1 C  dxx        
       19    1 C  dxy        
       20    1 C  dxz        
       21    1 C  dyy        
       22    1 C  dyz        
       23    1 C  dzz        
       24    1 C  dxx        
       25    1 C  dxy        
       26    1 C  dxz        
       27    1 C  dyy        
       28    1 C  dyz        
       29    1 C  dzz        
       30    1 C  dxx        
       31    1 C  dxy        
       32    1 C  dxz        
       33    1 C  dyy        
       34    1 C  dyz        
       35    1 C  dzz        
       36    1 C  fxxx       
       37    1 C  fxxy       
       38    1 C  fxxz       
       39    1 C  fxyy       
       40    1 C  fxyz       
       41    1 C  fxzz       
       42    1 C  fyyy       
       43    1 C  fyyz       
       44    1 C  fyzz       
       45    1 C  fzzz       
       46    1 C  fxxx       
       47    1 C  fxxy       
       48    1 C  fxxz       
       49    1 C  fxyy       
       50    1 C  fxyz       
       51    1 C  fxzz       
       52    1 C  fyyy       
       53    1 C  fyyz       
       54    1 C  fyzz       
       55    1 C  fzzz       
  int_init: cando_txs set to always be  F

 Schwarz integral screening summary 
 ---------------------------------- 

        No. of atom pairs =       1
       No. of shell pairs =     105

 Atomic screening 

   value      no.     value      no.     value      no.     value      no.   
  -------- ------    -------- ------    -------- ------    -------- ------   
  0.00D+00      0    1.00D-13      0    1.00D-12      0    1.00D-11      0
  1.00D-10      0    1.00D-09      0    1.00D-08      0    1.00D-07      0
  1.00D-06      0    1.00D-05      0    1.00D-04      0    1.00D-03      0
  1.00D-02      0    1.00D-01      0    1.00D+00      1    1.00D+01      0


 Shell screening 

   value      no.     value      no.     value      no.     value      no.   
  -------- ------    -------- ------    -------- ------    -------- ------   
  0.00D+00      0    1.00D-13      0    1.00D-12      0    1.00D-11      0
  1.00D-10      0    1.00D-09      0    1.00D-08      0    1.00D-07      0
  1.00D-06      0    1.00D-05      0    1.00D-04      0    1.00D-03      0
  1.00D-02      6    1.00D-01     35    1.00D+00     64    1.00D+01      0


  Caching 1-el integrals 
  atom                     1  - neighbor  & S                     1   10.000000000000000       exp AB    3.5690000000000027E-002   3.5690000000000027E-002
 zmins =     0.035690000    0.035690000 lprod =   2 range =        17.55 acc   0.10D-06
 sh     0.000000000
  Center:                     1  Radial Pts. & Wghts. 
    1        0.000015756           1.1733773E-14
    2        0.000126047           3.0039633E-12
    3        0.000425420           7.6996468E-11
    4        0.001008456           7.6925531E-10
    5        0.001969808           4.5866825E-09
    6        0.003404261           1.9731931E-08
    7        0.005406800           6.7772316E-08
    8        0.008072699           1.9742334E-07
    9        0.011497626           5.0716133E-07
   10        0.015777762           1.1799543E-06
   11        0.021009941           2.5340335E-06
   12        0.027291804           5.0943418E-06
   13        0.034721974           9.6901135E-06
   14        0.043400252           1.7584996E-05
   15        0.053427826           3.0647248E-05
   16        0.064907510           5.1568906E-05
   17        0.077944002           8.4144416E-05
   18        0.092644169           1.3362120E-04
   19        0.109117353           2.0713700E-04
   20        0.127475716           3.1426181E-04
   21        0.147834614           4.6766566E-04
   22        0.170313000           6.8393801E-04
   23        0.195033878           9.8459002E-04
   24        0.222124793           1.3972772E-03
   25        0.251718376           1.9572893E-03
   26        0.283952943           2.7093626E-03
   27        0.318973157           3.7098858E-03
   28        0.356930762           5.0295837E-03
   29        0.397985400           6.7567848E-03
   30        0.442305522           9.0014055E-03
   31        0.490069406           1.1899814E-02
   32        0.541466293           1.5620779E-02
   33        0.596697678           2.0372769E-02
   34        0.655978757           2.6412917E-02
   35        0.719540068           3.4058080E-02
   36        0.787629360           4.3698523E-02
   37        0.860513730           5.5814900E-02
   38        0.938482062           7.0999439E-02
   39        1.021847852           8.9982450E-02
   40        1.110952460           1.1366569E-01
   41        1.206168895           1.4316453E-01
   42        1.307906243           1.7986163E-01
   43        1.416614853           2.2547548E-01
   44        1.532792466           2.8214881E-01
   45        1.656991504           3.5256310E-01
   46        1.789827764           4.4008817E-01
   47        1.931990898           5.4897935E-01
   48        2.084257110           6.8463938E-01
   49        2.247504674           8.5396992E-01
   50        2.422733055           1.0658484E+00
   51        2.611086694           1.3317820E+00
   52        2.813884894           1.6668170E+00
   53        3.032659783           2.0908192E+00
   54        3.269205135           2.6303080E+00
   55        3.525640005           3.3211248E+00
   56        3.804492913           4.2123956E+00
   57        4.108815125           5.3725394E+00
   58        4.442335960           6.8986061E+00
   59        4.809680398           8.9311995E+00
   60        5.216681589           1.1679101E+01
   61        5.670842710           1.5461442E+01
   62        6.182043003           2.0783193E+01
   63        6.763661398           2.8477548E+01
   64        7.434454365           3.9992317E+01
   65        8.221891149           5.8013952E+01
   66        9.168557395           8.7974944E+01
   67       10.345795505           1.4223637E+02
   68       11.887347103           2.5423917E+02
   69       14.093466148           5.4411568E+02
   70       17.922237855           1.7856983E+03
     irreducible set of Lebedev Angular points ;
  0.009523809523810  1.000000000000000  0.000000000000000  0.000000000000000
  0.032142857142857  0.577350269189626  0.577350269189626  0.577350269189626
  0.028571428571429  0.459700843380983  0.000000000000000  0.888073833977115
   total no. of   reducible points:  38; test:  1.00000000
  0.012698412698413  1.000000000000000  0.000000000000000  0.000000000000000
  0.022574955908289  0.707106781186547  0.707106781186547  0.000000000000000
  0.021093750000000  0.577350269189626  0.577350269189626  0.577350269189626
  0.020173335537919  0.301511344577764  0.301511344577764  0.904534033733291
   total no. of   reducible points:  50; test:  1.00000000
  0.000513067179734  1.000000000000000  0.000000000000000  0.000000000000000
  0.016604069565742  0.707106781186547  0.707106781186547  0.000000000000000
 -0.029586038961039  0.577350269189626  0.577350269189626  0.577350269189626
  0.026576207082159  0.480384461415261  0.480384461415261  0.733799385705343
  0.016522170993716  0.320772648980776  0.000000000000000  0.947156221362588
   total no. of   reducible points:  74; test:  1.00000000
  0.011544011544012  1.000000000000000  0.000000000000000  0.000000000000000
  0.011943909085856  0.577350269189626  0.577350269189626  0.577350269189626
  0.011110555710603  0.369602846454150  0.369602846454150  0.852518311701268
  0.011876501294537  0.694354006602666  0.694354006602666  0.189063552885395
  0.011812303746904  0.374243039090341  0.000000000000000  0.927330657151172
   total no. of   reducible points:  86; test:  1.00000000
  0.003828270494937  1.000000000000000  0.000000000000000  0.000000000000000
  0.009793737512488  0.577350269189626  0.577350269189626  0.577350269189626
  0.008211737283191  0.185115635344736  0.185115635344736  0.965124035086594
  0.009942814891178  0.690421048382292  0.690421048382292  0.215957291845848
  0.009595471336071  0.395689473055942  0.395689473055942  0.828769981252592
  0.009694996361663  0.478369028812150  0.000000000000000  0.878158910604066
   total no. of   reducible points: 110; test:  1.00000000
  0.000599631368862  1.000000000000000  0.000000000000000  0.000000000000000
  0.007372999718621  0.707106781186547  0.707106781186547  0.000000000000000
  0.007210515360144  0.577350269189626  0.577350269189626  0.577350269189626
  0.007116355493118  0.676441040011426  0.676441040011426  0.291298882209527
  0.006753829486314  0.417496122796545  0.417496122796545  0.807089818359583
  0.007574394159054  0.157467667203908  0.157467667203908  0.974888643677173
  0.006991087353303  0.140355381171318  0.449332832326956  0.882270011260323
   total no. of   reducible points: 146; test:  1.00000000
  0.005544842902037  1.000000000000000  0.000000000000000  0.000000000000000
  0.006071332770671  0.707106781186547  0.707106781186547  0.000000000000000
  0.006383674773515  0.577350269189626  0.577350269189626  0.577350269189626
  0.005183387587748  0.255125262111413  0.255125262111413  0.932642590312691
  0.006317929009814  0.674360146036277  0.674360146036277  0.300793595137701
  0.006201670006589  0.431891069671941  0.431891069671941  0.791795559393492
  0.005477143385137  0.261393136033599  0.000000000000000  0.965232421976448
  0.005968383987681  0.499045316179604  0.144663074432512  0.854415804684659
   total no. of   reducible points: 170; test:  1.00000000
  0.001782340447245  1.000000000000000  0.000000000000000  0.000000000000000
  0.005716905949977  0.707106781186547  0.707106781186547  0.000000000000000
  0.005573383178849  0.577350269189626  0.577350269189626  0.577350269189626
  0.005608704082588  0.671297344269523  0.671297344269523  0.314196994182586
  0.005158237711805  0.289246562757544  0.289246562757544  0.912509096867474
  0.005518771467274  0.444693317871744  0.444693317871744  0.777493219314767
  0.004106777028169  0.129933544765007  0.129933544765007  0.982972302707253
  0.005051846064615  0.345770219761128  0.000000000000000  0.938319218137592
  0.005530248916233  0.159041710538353  0.836036015482459  0.525118572443642
   total no. of   reducible points: 194; test:  1.00000000
 -0.055226399197273  1.000000000000000  0.000000000000000  0.000000000000000
  0.004450274607445  0.577350269189626  0.577350269189626  0.577350269189626
  0.004496841067921  0.449204468739761  0.449204468739761  0.772289253148364
  0.005049153450479  0.252041949021020  0.252041949021020  0.934317778845812
  0.003976408018052  0.698190665844724  0.698190665844724  0.158302205463478
  0.004401400650381  0.658740524346096  0.658740524346096  0.363485684956727
  0.017245443505444  0.040385440500977  0.040385440500977  0.998367683967727
  0.004231083095357  0.582384230971558  0.000000000000000  0.812913653173365
  0.005198069864064  0.354587739051869  0.000000000000000  0.935022745880593
  0.004695720972569  0.227218180899819  0.486466153588665  0.843636521068894
   total no. of   reducible points: 230; test:  1.00000000
 -0.001313769127327  1.000000000000000  0.000000000000000  0.000000000000000
 -0.002522728704859  0.707106781186547  0.707106781186547  0.000000000000000
  0.004186853881701  0.577350269189626  0.577350269189626  0.577350269189626
  0.005315167977811  0.703937339158548  0.703937339158548  0.094575076403713
  0.004047142377086  0.101252624857241  0.101252624857241  0.989694807462905
  0.004112482394407  0.464744872642054  0.464744872642054  0.753673939250816
  0.003595584899759  0.327742065497163  0.327742065497163  0.886098344997499
  0.004256131351428  0.662033866369997  0.662033866369997  0.351315128564633
  0.004229582700647  0.850650808352040  0.000000000000000  0.525731112119134
  0.004080914225781  0.323348454269290  0.115311201100970  0.939227929749916
  0.004071467593831  0.231479015871260  0.524493924092236  0.819343388819120
   total no. of   reducible points: 266; test:  1.00000000
  0.000854591172513  1.000000000000000  0.000000000000000  0.000000000000000
  0.003599119285026  0.577350269189626  0.577350269189626  0.577350269189626
  0.003449788424306  0.351564034557011  0.351564034557011  0.867643624544083
  0.003604822601420  0.656632941021961  0.656632941021961  0.371034178384821
  0.003576729661743  0.472905413258100  0.472905413258100  0.743452042987556
  0.002352101413689  0.096183085226148  0.096183085226148  0.990705621379408
  0.003108953122414  0.221964523629418  0.221964523629418  0.949454317226443
  0.003650045807677  0.701176641608955  0.701176641608955  0.129238672710514
  0.002982344963172  0.264415288706066  0.000000000000000  0.964408914879206
  0.003600820932216  0.571895589187896  0.000000000000000  0.820326419827759
  0.003571540554273  0.251003475177047  0.800072749407395  0.544867737258077
  0.003392312205006  0.123354853258333  0.412772408316853  0.902442529533000
   total no. of   reducible points: 302; test:  1.00000000
  0.003006796749454  1.000000000000000  0.000000000000000  0.000000000000000
  0.003050627745651  0.577350269189626  0.577350269189626  0.577350269189626
  0.001621104600289  0.706896546391232  0.706896546391232  0.024383301669356
  0.003005701484902  0.479468262571203  0.479468262571203  0.734996850587746
  0.002990992529654  0.192753315487802  0.192753315487802  0.962129055136014
  0.002982170644108  0.693035796132712  0.693035796132712  0.198501311223365
  0.002721564237311  0.360830211552009  0.360830211552009  0.860001812127547
  0.003033513795811  0.649848616149617  0.649848616149617  0.394199888605839
  0.003007949555219  0.193294501323034  0.000000000000000  0.981140782843257
  0.002881964603055  0.380049491989930  0.000000000000000  0.924966152698679
  0.002958357626536  0.289955882549957  0.793453785658232  0.535123047718276
  0.003036020026407  0.096841214551040  0.828080150668686  0.552182074349399
  0.002832187403926  0.183343464704166  0.907465826530513  0.378009189874487
   total no. of   reducible points: 350; test:  1.00000000
  0.000526589796822  1.000000000000000  0.000000000000000  0.000000000000000
  0.002548219972003  0.707106781186547  0.707106781186547  0.000000000000000
  0.002512317418927  0.577350269189626  0.577350269189626  0.577350269189626
  0.002530403801186  0.690934630750911  0.690934630750911  0.212646824707552
  0.002014279020919  0.177483605460916  0.177483605460916  0.967987158791473
  0.002501725168403  0.491434263778475  0.491434263778475  0.719016501040843
  0.002513267174598  0.645666470742426  0.645666470742426  0.407712664897770
  0.002302694782227  0.286128901030764  0.286128901030764  0.914472801120872
  0.001462495621595  0.075680843671780  0.075680843671780  0.994255912631278
  0.002445373437313  0.392725976336800  0.392725976336800  0.831584400419232
  0.002417442375639  0.881813287779429  0.000000000000000  0.471598691151316
  0.001910951282180  0.977642811118265  0.000000000000000  0.210272522857307
  0.002416930044325  0.205482369640304  0.868946032287241  0.450233038258263
  0.002512236854563  0.590515704892527  0.799927854385729  0.106801826075805
  0.002496644054553  0.555015236107681  0.771746262691590  0.310428403516654
  0.002236607760438  0.937180985855372  0.334436314534346  0.099217696364292
   total no. of   reducible points: 434; test:  1.00000000
  0.000309512129531  1.000000000000000  0.000000000000000  0.000000000000000
  0.001852379698597  0.577350269189626  0.577350269189626  0.577350269189626
  0.001871790639278  0.704095493822747  0.704095493822747  0.092190407076898
  0.001858812585438  0.680774406645524  0.680774406645524  0.270356088359165
  0.001852028828296  0.637254693925875  0.637254693925875  0.433373868777154
  0.001846715956151  0.504441970780036  0.504441970780036  0.700768575373573
  0.001818471778163  0.421576178401097  0.421576178401097  0.802836877335274
  0.001749564657281  0.331792073647212  0.331792073647212  0.883078727934133
  0.001617210647254  0.238473670142189  0.238473670142189  0.941414158220403
  0.001384737234852  0.145903644915776  0.145903644915776  0.978480583762694
  0.000976433116505  0.060950341155072  0.060950341155072  0.996278129754016
  0.001857161196774  0.611684344200988  0.000000000000000  0.791101929626902
  0.001705153996396  0.396475534819986  0.000000000000000  0.918045287711454
  0.001300321685886  0.172478200990772  0.000000000000000  0.985013335028002
  0.001842866472905  0.561026380862206  0.351828092773352  0.749310611904116
  0.001802658934377  0.474239284255198  0.263471665593795  0.840047488359050
  0.001849830560444  0.598412649788538  0.181664084036021  0.780320742479920
  0.001713904507107  0.379103540769556  0.172079522565688  0.909213475092374
  0.001555213603397  0.277867319058624  0.082130215819325  0.957102074310073
  0.001802239128009  0.503356427107512  0.089992058420749  0.859379855890721
   total no. of   reducible points: 590; test:  1.00000000
  qrot: 

              1        2        3      
    1    1.0000   0.0000   0.0000
    2    0.0000   1.0000   0.0000
    3    0.0000   0.0000   1.0000
  me                     0   done genpts
  me                     1   done genpts
  me                     2   done genpts
  me                     3   done genpts
  me                     4   done genpts
  me                     5   done genpts
  me                     6   done genpts
  me                     7   done genpts
  me                     0   done uprt
  me                     1   done uprt
  me                     2   done uprt
  me                     3   done uprt
  me                     4   done uprt
  me                     5   done uprt
  me                     6   done uprt
  me                     7   done uprt
  me                     0  done mem
  me                     1  done mem
  me                     2  done mem
  me                     3  done mem
  me                     4  done mem
  me                     5  done mem
  me                     6  done mem
  me                     7  done mem
  dftinpanae: itol2e                     8  iaoacc                    14  tol_rho    1.0000000000000000E-010

            General Information
            -------------------
          SCF calculation type: DFT
          Wavefunction type:  spin polarized.
          No. of atoms     :     1
          No. of electrons :     6
           Alpha electrons :     4
            Beta electrons :     2
          Charge           :     0
          Spin multiplicity:     3
          Use of symmetry is: off; symmetry adaption is: off
          Maximum number of iterations:  50
          AO basis - number of functions:    55
                     number of shells:    14
          Convergence on energy requested:  1.00D-06
          Convergence on density requested:  1.00D-05
          Convergence on gradient requested:  5.00D-04

              XC Information
              --------------
                     Hartree-Fock (Exact) Exchange  1.000          
                     LC-wPBE(h)Exchange Functional  1.000          
            Perdew 1991 LDA Correlation Functional  1.000 local    
           PerdewBurkeErnz. Correlation Functional  1.000 non-local

           Range-Separation Parameters        
           ---------------------------
           Alpha           :  0.00
           Beta            :  1.00
           Gamma           :  0.39
           Short-Range HF  :     F

             Grid Information
             ----------------
          Grid used for XC integration:  fine      
          Radial quadrature: Mura-Knowles        
          Angular quadrature: Lebedev. 
          Tag              B.-S. Rad. Rad. Pts. Rad. Cut. Ang. Pts.
          ---              ---------- --------- --------- ---------
          C                   0.70       70          10.0       590
          Grid pruning is: on 
          Number of quadrature shells:    70
          Spatial weights used:  Erf1

          Convergence Information
          -----------------------
          Convergence aids based upon iterative change in 
          total energy or number of iterations. 
          Levelshifting, if invoked, occurs when the 
          HOMO/LUMO gap drops below (HL_TOL):  1.00D-02
          DIIS, if invoked, will attempt to extrapolate 
          using up to (NFOCK): 10 stored Fock matrices.

                    Damping( 0%)  Levelshifting(0.5)       DIIS
                  --------------- ------------------- ---------------
          dE  on:    start            ASAP                start   
          dE off:    2 iters         50 iters            50 iters 


      Screening Tolerance Information
      -------------------------------
          Density screening/tol_rho:  1.00D-10
          AO Gaussian exp screening on grid/accAOfunc:  14
          CD Gaussian exp screening on grid/accCDfunc:  20
          XC Gaussian exp screening on grid/accXCfunc:  20
          Schwarz screening/accCoul:  1.00D-08



                         Geometry "geometry" -> "geometry"
                         ---------------------------------

 Output coordinates in angstroms (scale by  1.889725989 to convert to a.u.)

  No.       Tag          Charge          X              Y              Z
 ---- ---------------- ---------- -------------- -------------- --------------
    1 C                    6.0000     0.00000000     0.00000000     0.00000000

      Atomic Mass 
      ----------- 

      C                 12.000000


 Effective nuclear repulsion energy (a.u.)       0.0000000000

            Nuclear Dipole moment (a.u.) 
            ----------------------------
        X                 Y               Z
 ---------------- ---------------- ----------------
     0.0000000000     0.0000000000     0.0000000000

  
  CAM type calculations without CDFIT are
  only available with the direct option.
  Forcing Direct SCF
  


     <<<<<<    Before call to DFT_SCF.    >>>>>>
     <<<<<< date:  May  8  time: 11:49:16 >>>>>>


 Setting tolerance for linear dependence to 1.00D-05



 Setting tolerance for linear dependence to 1.00D-05




 Setting tolerance for linear dependence to 1.00D-05
 Setting tolerance for linear dependence to 1.00D-05
 Setting tolerance for linear dependence to 1.00D-05
 Setting tolerance for linear dependence to 1.00D-05
 Setting tolerance for linear dependence to 1.00D-05
 Setting tolerance for linear dependence to 1.00D-05
  lindep tolerance =    1.0000000000000001E-005
  lindep tolerance =    1.0000000000000001E-005
  lindep tolerance =    1.0000000000000001E-005
  lindep tolerance =    1.0000000000000001E-005
  lindep tolerance =    1.0000000000000001E-005
  lindep tolerance =    1.0000000000000001E-005
  lindep tolerance =    1.0000000000000001E-005
  lindep tolerance =    1.0000000000000001E-005


     <<<<<<    Before 3c-2e initialize.   >>>>>>
     <<<<<< date:  May  8  time: 11:49:16 >>>>>>


 Setting fock-build task_bf   :      -1
                    maxquartet:   10000
                    maxeri    :  129600
                    maxscr    :       0
                    intacc    : 0.0D+00
                    denscreen : T
                    dentol    : 1.0D-06


      Superposition of Atomic Density Guess
      -------------------------------------

 Sum of atomic energies:         -37.67066074

      Non-variational initial energy
      ------------------------------

 Total energy =     -37.314867
 1-e energy   =     -50.417403
 2-e energy   =      13.102536
 HOMO         =      -0.079421
 LUMO         =      -0.079421


 Setting fock-build task_bf   :      -1
                    maxquartet:   10000
                    maxeri    :  129600
                    maxscr    :       0
                    intacc    : 0.0D+00
                    denscreen : T
                    dentol    : 1.0D-06


 Wrote molecular orbitals to ./c.movecs

  WARNING: movecs_in_org=atomic not equal to movecs_in=./c.movecs
   Time after variat. SCF:      0.3

 Setting fock-build task_bf   :      -1
                    maxquartet:   10000
                    maxeri    :  129600
                    maxscr    :       0
                    intacc    : 0.0D+00
                    denscreen : T
                    dentol    : 1.0D-06

   Time prior to 1st pass:      0.3


     <<<<<<      Before SCF iter loop.    >>>>>>
     <<<<<< date:  May  8  time: 11:49:16 >>>>>>

           DAMPING=T LEVELSHIFTING=F DIISING=T
          itol2e= 8 iAOacc=12 iXCacc=20


     <<<<<<            calling 1-e int    >>>>>>
     <<<<<< date:  May  8  time: 11:49:16 >>>>>>

    Kinetic Matrix Time:          0.0s

           Kinetic energy =     36.962176696628

    Potential Matrix Time:          0.0s


     <<<<<<    Before call to GETVXC.     >>>>>>
     <<<<<< date:  May  8  time: 11:49:16 >>>>>>



     <<<<<<    Before call to fock_2e.    >>>>>>
     <<<<<< date:  May  8  time: 11:49:16 >>>>>>



     <<<<<<     After call to fock_2e.    >>>>>>
     <<<<<< date:  May  8  time: 11:49:16 >>>>>>

    Fock_2e Build Time:          0.1s
  *** grid_quadv0:                    calc_type:                    1
  *** grid_quadv0:                    grid_written: F
  *** grid_quadv0:                    grad: T
  *** grid_quadv0:                    kske: F
  *** grid_quadv0:                    kslap: F
  *** grid_quadv0:                    do_scf: T
  *** grid_quadv0:                    fde_option:                    0
  *** grid_quadv0:                    calc_type:                    1
  *** grid_quadv0:                    grid_written: F
  *** grid_quadv0:                    grad: T
  *** grid_quadv0:                    kske: F
  *** grid_quadv0:                    kslap: F
  *** grid_quadv0:                    do_scf: T
  *** grid_quadv0:                    fde_option:                    0
  *** grid_quadv0:                    n_per_rec:                 3070
  *** grid_quadv0:                    calc_type:                    1
  *** grid_quadv0:                    grid_written: F
  *** grid_quadv0:                    grad: T
  *** grid_quadv0:                    kske: F
  *** grid_quadv0:                    kslap: F
  *** grid_quadv0:                    do_scf: T
  *** grid_quadv0:                    fde_option:                    0
  *** grid_quadv0:                    n_per_rec:                 3070
  *** grid_quadv0:                    calc_type:                    1
  *** grid_quadv0:                    grid_written: F
  *** grid_quadv0:                    grad: T
  *** grid_quadv0:                    kske: F
  *** grid_quadv0:                    kslap: F
  *** grid_quadv0:                    do_scf: T
  *** grid_quadv0:                    fde_option:                    0
  *** grid_quadv0:                    n_per_rec:                 3070
  *** grid_quadv0:                    calc_type:                    1
  *** grid_quadv0:                    grid_written: F
  *** grid_quadv0:                    grad: T
  *** grid_quadv0:                    kske: F
  *** grid_quadv0:                    kslap: F
  *** grid_quadv0:                    do_scf: T
  *** grid_quadv0:                    fde_option:                    0
  *** grid_quadv0:                    n_per_rec:                 3070
  *** grid_quadv0:                    calc_type:                    1
  *** grid_quadv0:                    grid_written: F
  *** grid_quadv0:                    grad: T
  *** grid_quadv0:                    kske: F
  *** grid_quadv0:                    kslap: F
  *** grid_quadv0:                    do_scf: T
  *** grid_quadv0:                    fde_option:                    0
  *** grid_quadv0:                    n_per_rec:                 3070
  *** grid_quadv0:                    n_per_rec:                 3070
  *** grid_quadv0:                    calc_type:                    1
  *** grid_quadv0:                    grid_written: F
  *** grid_quadv0:                    grad: T
  *** grid_quadv0:                    kske: F
  *** grid_quadv0:                    kslap: F
  *** grid_quadv0:                    do_scf: T
  *** grid_quadv0:                    fde_option:                    0
  *** grid_quadv0:                    n_per_rec:                 3070
  *** grid_quadv0:                    calc_type:                    1
  *** grid_quadv0:                    grid_written: F
  *** grid_quadv0:                    grad: T
  *** grid_quadv0:                    kske: F
  *** grid_quadv0:                    kslap: F
  *** grid_quadv0:                    do_scf: T
  *** grid_quadv0:                    fde_option:                    0
  *** grid_quadv0:                    n_per_rec:                 3070
   0: nuse=   8 avail= 12500000Mb on .
   1: nuse=   8 avail= 12500000Mb on .
   2: nuse=   8 avail= 12500000Mb on .
   4: nuse=   8 avail= 12500000Mb on .
   5: nuse=   8 avail= 12500000Mb on .
   6: nuse=   8 avail= 12500000Mb on .
   3: nuse=   8 avail= 12500000Mb on .
   7: nuse=   8 avail= 12500000Mb on .
 l_cube input   11.00

  atom type   l_cube   no. cubes   segmts   rad   sub
 ----------- -------- ----------- -------- ----- -----
        1     12.00        34         3      18     8

 Grid_pts file          = ./c.gridpts.0
 Record size in doubles =  12289        No. of grid_pts per rec  =   3070
 Max. records in memory =      3        Max. recs in file   = 126656358

 me   0 NQTOTC NQ/cube    4559     239
 me   1 NQTOTC NQ/cube    2397    1198
 me   2 NQTOTC NQ/cube    2725     908
 me   3 NQTOTC NQ/cube    2395     798
 me   4 NQTOTC NQ/cube    2113    1056
 me   5 NQTOTC NQ/cube    2319    2319
 me   6 NQTOTC NQ/cube    1907     953
 me   7 NQTOTC NQ/cube    2113    1056

 XC quadr. integrated density :       6.000000 npts:    20428 nctrs:        1

    Fock_xc Build Time:          0.0s


     <<<<<<    Before call to GETVCOUL.   >>>>>>
     <<<<<< date:  May  8  time: 11:49:16 >>>>>>



     <<<<<<    End of parallel region.    >>>>>>
     <<<<<< date:  May  8  time: 11:49:16 >>>>>>

    Total Fock Matrix Build Time:          0.1s
 Etnew, Ecore, Ecoul, Exc(1), Exc(2), Totsic:   -37.757997988168015       -49.551891493203797        16.800722580636325       -5.0068290756005425        0.0000000000000000        0.0000000000000000     
  delta =   -37.757997988168015     
  delta =   -37.757997988168015     


         Total DFT energy =      -37.757997988168
      One electron energy =      -49.551891493204
           Coulomb energy =       16.800722580636
  delta =   -37.757997988168015     
  delta =   -37.757997988168015     
  delta =   -37.757997988168015     
  delta =   -37.757997988168015     
  delta =   -37.757997988168015     
  delta =   -37.757997988168015     
    Exchange-Corr. energy =       -5.006829075601
 Nuclear repulsion energy =        0.000000000000

 Numeric. integr. density =        5.999999987925

     Total iterative time =      1.4s




     <<<<<<        calling diis driver    >>>>>>
     <<<<<< date:  May  8  time: 11:49:16 >>>>>>

 nhist                     1  pulay matrix 
   0.0000E+00
  -1.0000E+00   1.2349E-01


     <<<<<<         called diis driver    >>>>>>
     <<<<<< date:  May  8  time: 11:49:17 >>>>>>


 global array: fock transf[1:55,1:55],  handle: -940 

            1           2           3           4           5           6  
       ----------- ----------- ----------- ----------- ----------- -----------
   1       3.80606    -0.00000     0.00000     0.00000    -2.75147     0.00000
   2      -0.00000     6.64508    -0.00015    -0.00015    -0.00000    -0.46946
   3       0.00000    -0.00015     6.64423    -0.00075     0.00000     0.09664
   4       0.00000    -0.00015    -0.00075     6.64460     0.00000     0.90500
   5      -2.75147    -0.00000     0.00000     0.00000     4.98686    -0.00000
   6       0.00000    -0.46946     0.09664     0.90500    -0.00000     1.39115
   7      -0.00000     0.39109    -0.89813     0.29807     0.00000     0.00106
   8       0.00000    -0.82120    -0.48336    -0.37558    -0.00000     0.00143
   9       0.39747     0.00000    -0.00000    -0.00000    -0.99964    -0.00000
  10       0.00000     0.00051    -0.00012     0.00013     0.00000    -0.00034
  11       0.00000     0.00012     0.00022    -0.00030     0.00000    -0.00024
  12       0.00000     0.00027    -0.00025     0.00025    -0.00000     0.00022
  13      -0.00000    -0.00054     0.00002     0.00010    -0.00000    -0.00022
  14       0.67425     0.00000    -0.00000     0.00000    -0.62182     0.00000
  15       0.00000    -0.11226     0.00625     0.02367     0.00000    -0.25046
  16      -0.00000     0.01488    -0.07312     0.08659    -0.00000    -0.21725
  17      -0.00000    -0.02008    -0.08774    -0.07087     0.00000     0.21259
  18       0.00054     0.00000    -0.00000     0.00000    -0.00031    -0.00000
  19      -0.00081     0.00000     0.00000     0.00000     0.00045    -0.00000
  20      -0.00048     0.00000     0.00000     0.00000     0.00027     0.00000
  21      -0.00000     0.00103     0.00095     0.00112    -0.00000     0.00043
  22       0.00003     0.00000    -0.00000     0.00000    -0.00002     0.00000
  23       0.00045     0.00000    -0.00000    -0.00000    -0.00025    -0.00000
  24       0.00000    -0.00042     0.00178     0.00052     0.00000     0.00060
  25       0.00000    -0.00063     0.00103     0.00106    -0.00000     0.00079
  26      -0.00000     0.00035     0.00014    -0.00063    -0.00000    -0.00044
  27      -0.00045     0.00000    -0.00000     0.00000     0.00101    -0.00000
  28       0.00037    -0.00000    -0.00000     0.00000    -0.00083     0.00000
  29       0.00059     0.00000    -0.00000     0.00000    -0.00132    -0.00000
  30      -0.00000    -0.01201    -0.06735     0.02688    -0.00000     0.15176
  31       0.00000     0.01647    -0.02835    -0.06524     0.00000    -0.45448
  32      -0.00000    -0.06934     0.00506    -0.01896    -0.00000     0.10328
  33       0.00000     0.01408    -0.29165     0.11600    -0.00000     0.14093
  34       0.00000    -0.10771     0.10790     0.27626    -0.00000     0.61190
  35      -0.00000     0.29465     0.05411     0.09664    -0.00000    -0.09195
  36      -0.12844    -0.00000     0.00000    -0.00000     0.45209    -0.00000
  37       0.00026    -0.00000     0.00000    -0.00000    -0.00059    -0.00000
  38       0.00022     0.00000    -0.00000     0.00000    -0.00049    -0.00000
  39       0.00029     0.00000    -0.00000     0.00000    -0.00003    -0.00000
  40       0.00024     0.00000     0.00000    -0.00000    -0.00002    -0.00000
  41      -0.00070     0.00000    -0.00000     0.00000     0.00007    -0.00000
  42       0.00000     0.02335     0.06095     0.00816    -0.00000     0.00234
  43      -0.00000    -0.05666     0.02387    -0.01801     0.00000     0.02076
  44      -0.00000    -0.01886     0.00182     0.06178    -0.00000     0.10633
  45      -0.00032     0.00000    -0.00000    -0.00000     0.00003    -0.00000
  46       0.00006     0.00000    -0.00000     0.00000    -0.00001     0.00000
  47      -0.01268    -0.00000     0.00000     0.00000     0.31224     0.00000
  48      -0.00000    -0.03469     0.00864    -0.12333     0.00000    -0.10816
  49      -0.00000    -0.00351    -0.12697    -0.00414     0.00000    -0.01789
  50      -0.00000     0.12485    -0.00193    -0.03495     0.00000    -0.10251
  51       0.18241     0.00000    -0.00000     0.00000    -0.36229    -0.00000
  52      -0.00000     0.00214     0.05713     0.02851     0.00000     0.01794
  53       0.00000     0.01609     0.03217    -0.06077    -0.00000    -0.03261
  54      -0.00000    -0.06890     0.01058    -0.01240    -0.00000     0.01186
  55      -0.09508    -0.00000    -0.00000    -0.00000     0.14879     0.00000

            7           8           9          10          11          12  
       ----------- ----------- ----------- ----------- ----------- -----------
   1      -0.00000     0.00000     0.39747     0.00000     0.00000     0.00000
   2       0.39109    -0.82120     0.00000     0.00051     0.00012     0.00027
   3      -0.89813    -0.48336    -0.00000    -0.00012     0.00022    -0.00025
   4       0.29807    -0.37558    -0.00000     0.00013    -0.00030     0.00025
   5       0.00000    -0.00000    -0.99964     0.00000     0.00000    -0.00000
   6       0.00106     0.00143    -0.00000    -0.00034    -0.00024     0.00022
   7       1.39143    -0.00121     0.00000     0.00048    -0.00014    -0.00008
   8      -0.00121     1.39056     0.00000    -0.00005    -0.00004    -0.00045
   9       0.00000     0.00000     0.80058     0.00000    -0.00000    -0.00000
  10       0.00048    -0.00005     0.00000     2.49188     0.00007    -0.00029
  11      -0.00014    -0.00004    -0.00000     0.00007     2.49035     0.00079
  12      -0.00008    -0.00045    -0.00000    -0.00029     0.00079     2.49229
  13       0.00014     0.00059     0.00000     0.00035     0.00062     0.00114
  14      -0.00000    -0.00000     1.25822    -0.00000    -0.00000     0.00000
  15       0.14077    -0.26848    -0.00000     0.00136     0.00038     0.00055
  16      -0.32673     0.03079     0.00000    -0.00069     0.00068     0.00027
  17      -0.16824    -0.28687    -0.00000     0.00132     0.00004    -0.00021
  18      -0.00000     0.00000     0.00042    -0.00000    -0.00000    -0.00000
  19      -0.00000     0.00000    -0.00063    -0.00000    -0.00000    -0.00000
  20      -0.00000    -0.00000    -0.00037    -0.00000     0.00000     0.00000
  21      -0.00006    -0.00127     0.00000     0.98231     0.00005    -0.00037
  22       0.00000    -0.00000     0.00002    -0.00000     0.00000    -0.00000
  23       0.00000    -0.00000     0.00035     0.00000    -0.00000    -0.00000
  24      -0.00097    -0.00044     0.00000     0.00046     0.14095    -0.95204
  25      -0.00060    -0.00026     0.00000     0.00037     0.08416     0.21065
  26      -0.00009    -0.00007    -0.00000    -0.00005     0.96757     0.12154
  27      -0.00000     0.00000     0.00008    -0.00000    -0.00000    -0.00000
  28      -0.00000    -0.00000    -0.00007    -0.00000     0.00000     0.00000
  29       0.00000     0.00000    -0.00011     0.00000    -0.00000     0.00000
  30       0.41578     0.21095    -0.00000    -0.00037    -0.00066     0.00046
  31       0.08237     0.16313     0.00000    -0.00079     0.00037     0.00056
  32      -0.24607     0.41009     0.00000    -0.00181    -0.00008    -0.00065
  33       0.59556     0.16755     0.00000     0.00010    -0.00071     0.00161
  34      -0.10943    -0.12952    -0.00000     0.00011    -0.00045    -0.00019
  35       0.18959    -0.59846     0.00000     0.00078     0.00013     0.00028
  36      -0.00000     0.00000    -0.39474     0.00000     0.00000    -0.00000
  37       0.00000     0.00000    -0.00005     0.00000    -0.00000     0.00000
  38       0.00000    -0.00000    -0.00004    -0.00000    -0.00000     0.00000
  39      -0.00000     0.00000    -0.00014     0.00000    -0.00000    -0.00000
  40       0.00000    -0.00000    -0.00012    -0.00000    -0.00000    -0.00000
  41       0.00000     0.00000     0.00034    -0.00000    -0.00000     0.00000
  42      -0.07026    -0.08338    -0.00000     0.00100     0.00039    -0.00125
  43      -0.08066     0.06850    -0.00000    -0.00051     0.00009    -0.00060
  44       0.01634    -0.01291    -0.00000     0.00059    -0.00039    -0.00027
  45       0.00000    -0.00000     0.00016     0.00000    -0.00000     0.00000
  46       0.00000    -0.00000    -0.00003    -0.00000     0.00000     0.00000
  47      -0.00000    -0.00000    -0.08502     0.00000    -0.00000    -0.00000
  48      -0.06479     0.08131     0.00000    -0.00004     0.00048    -0.00091
  49       0.12753     0.07661     0.00000     0.00069    -0.00031     0.00007
  50       0.04546    -0.09985    -0.00000     0.00074     0.00032     0.00028
  51       0.00000    -0.00000     0.13899     0.00000    -0.00000    -0.00000
  52      -0.02409    -0.02361    -0.00000    -0.00018     0.00012    -0.00024
  53      -0.02200    -0.00299     0.00000    -0.00009     0.00083    -0.00070
  54      -0.02158     0.03054     0.00000    -0.00103    -0.00007    -0.00074
  55       0.00000     0.00000    -0.08043    -0.00000     0.00000     0.00000

           13          14          15          16          17          18  
       ----------- ----------- ----------- ----------- ----------- -----------
   1      -0.00000     0.67425     0.00000    -0.00000    -0.00000     0.00054
   2      -0.00054     0.00000    -0.11226     0.01488    -0.02008     0.00000
   3       0.00002    -0.00000     0.00625    -0.07312    -0.08774    -0.00000
   4       0.00010     0.00000     0.02367     0.08659    -0.07087     0.00000
   5      -0.00000    -0.62182     0.00000    -0.00000     0.00000    -0.00031
   6      -0.00022     0.00000    -0.25046    -0.21725     0.21259    -0.00000
   7       0.00014    -0.00000     0.14077    -0.32673    -0.16824    -0.00000
   8       0.00059    -0.00000    -0.26848     0.03079    -0.28687     0.00000
   9       0.00000     1.25822    -0.00000     0.00000    -0.00000     0.00042
  10       0.00035    -0.00000     0.00136    -0.00069     0.00132    -0.00000
  11       0.00062    -0.00000     0.00038     0.00068     0.00004    -0.00000
  12       0.00114     0.00000     0.00055     0.00027    -0.00021    -0.00000
  13       2.49152     0.00000    -0.00024     0.00048     0.00021     0.00000
  14       0.00000     5.80870     0.00000    -0.00000     0.00000     0.00193
  15      -0.00024     0.00000     2.34569     0.00031     0.00074     0.00000
  16       0.00048    -0.00000     0.00031     2.34632    -0.00035    -0.00000
  17       0.00021     0.00000     0.00074    -0.00035     2.34507     0.00000
  18       0.00000     0.00193     0.00000    -0.00000     0.00000     1.89207
  19      -0.00000    -0.00288    -0.00000    -0.00000     0.00000    -0.00107
  20      -0.00000    -0.00169     0.00000     0.00000     0.00000    -0.00121
  21       0.00046    -0.00000     0.00095    -0.00046     0.00065     0.00000
  22      -0.00000     0.00010     0.00000     0.00000    -0.00000     0.00038
  23       0.00000     0.00160    -0.00000     0.00000     0.00000    -0.00032
  24       0.19577     0.00000    -0.00047    -0.00013    -0.00028     0.00000
  25       0.95596     0.00000    -0.00006     0.00053    -0.00025    -0.00000
  26      -0.11071     0.00000     0.00024     0.00024     0.00005     0.00000
  27       0.00000    -0.00272     0.00000    -0.00000    -0.00000     0.49856
  28      -0.00000     0.00223     0.00000    -0.00000    -0.00000     0.54829
  29       0.00000     0.00358     0.00000     0.00000     0.00000     0.81116
  30      -0.00043    -0.00000    -0.13608    -0.61268    -0.36918    -0.00000
  31      -0.00079    -0.00000     0.30829     0.28983    -0.59164    -0.00000
  32       0.00086    -0.00000    -0.64461     0.26673    -0.20518    -0.00000
  33      -0.00021    -0.00000    -0.01074     0.60627     0.32488     0.00000
  34       0.00173     0.00000     0.36929     0.27823    -0.51062    -0.00000
  35      -0.00078    -0.00000    -0.58192     0.16752    -0.33217    -0.00000
  36       0.00000    -0.11464     0.00000    -0.00000    -0.00000     0.00002
  37       0.00000     0.00160    -0.00000     0.00000     0.00000     0.00166
  38       0.00000     0.00133    -0.00000     0.00000    -0.00000     0.00086
  39       0.00000    -0.00149    -0.00000    -0.00000    -0.00000     0.14695
  40       0.00000    -0.00127     0.00000     0.00000     0.00000    -0.16523
  41      -0.00000     0.00362     0.00000     0.00000     0.00000     0.15646
  42       0.00093     0.00000    -0.01737    -0.02747    -0.05106    -0.00000
  43       0.00063     0.00000     0.05031    -0.03420     0.00297     0.00000
  44       0.00132     0.00000     0.02910     0.04062    -0.03318     0.00000
  45       0.00000     0.00168    -0.00000     0.00000    -0.00000    -0.00037
  46       0.00000    -0.00032    -0.00000     0.00000    -0.00000     0.00010
  47       0.00000     1.20827    -0.00000     0.00000     0.00000     0.00011
  48       0.00037    -0.00000     0.00947    -0.10940     0.08354     0.00000
  49       0.00050     0.00000    -0.00506     0.08242     0.11074     0.00000
  50      -0.00097     0.00000    -0.13791    -0.00932     0.00136     0.00000
  51      -0.00000    -0.00622     0.00000    -0.00000    -0.00000    -0.00214
  52       0.00011     0.00000     0.00616    -0.01210    -0.05858     0.00000
  53      -0.00055     0.00000    -0.02135    -0.05172     0.00964     0.00000
  54       0.00112    -0.00000     0.05393    -0.02073     0.01102     0.00000
  55      -0.00000    -0.12331    -0.00000     0.00000    -0.00000    -0.00031

           19          20          21          22          23          24  
       ----------- ----------- ----------- ----------- ----------- -----------
   1      -0.00081    -0.00048    -0.00000     0.00003     0.00045     0.00000
   2       0.00000     0.00000     0.00103     0.00000     0.00000    -0.00042
   3       0.00000     0.00000     0.00095    -0.00000    -0.00000     0.00178
   4       0.00000     0.00000     0.00112     0.00000    -0.00000     0.00052
   5       0.00045     0.00027    -0.00000    -0.00002    -0.00025     0.00000
   6      -0.00000     0.00000     0.00043     0.00000    -0.00000     0.00060
   7      -0.00000    -0.00000    -0.00006     0.00000     0.00000    -0.00097
   8       0.00000    -0.00000    -0.00127    -0.00000    -0.00000    -0.00044
   9      -0.00063    -0.00037     0.00000     0.00002     0.00035     0.00000
  10      -0.00000    -0.00000     0.98231    -0.00000     0.00000     0.00046
  11      -0.00000     0.00000     0.00005     0.00000    -0.00000     0.14095
  12      -0.00000     0.00000    -0.00037    -0.00000    -0.00000    -0.95204
  13      -0.00000    -0.00000     0.00046    -0.00000     0.00000     0.19577
  14      -0.00288    -0.00169    -0.00000     0.00010     0.00160     0.00000
  15      -0.00000     0.00000     0.00095     0.00000    -0.00000    -0.00047
  16      -0.00000     0.00000    -0.00046     0.00000     0.00000    -0.00013
  17       0.00000     0.00000     0.00065    -0.00000     0.00000    -0.00028
  18      -0.00107    -0.00121     0.00000     0.00038    -0.00032     0.00000
  19       1.89320     0.00019     0.00000     0.00037    -0.00083    -0.00000
  20       0.00019     1.89173     0.00000    -0.00047    -0.00107    -0.00000
  21       0.00000     0.00000     1.63150    -0.00000    -0.00000     0.00087
  22       0.00037    -0.00047    -0.00000     1.89015    -0.00003    -0.00000
  23      -0.00083    -0.00107    -0.00000    -0.00003     1.89224     0.00000
  24      -0.00000    -0.00000     0.00087    -0.00000     0.00000     1.63140
  25      -0.00000    -0.00000     0.00069    -0.00000    -0.00000    -0.00007
  26       0.00000    -0.00000    -0.00004    -0.00000     0.00000    -0.00080
  27       0.86157     0.46691     0.00000    -0.00036    -0.00041     0.00000
  28      -0.67950     0.66614     0.00000     0.00041     0.00165     0.00000
  29      -0.07481    -0.73836    -0.00000    -0.00044     0.00164    -0.00000
  30      -0.00000    -0.00000     0.00026    -0.00000     0.00000    -0.00029
  31      -0.00000    -0.00000     0.00027     0.00000    -0.00000     0.00044
  32      -0.00000    -0.00000    -0.00114     0.00000    -0.00000     0.00107
  33       0.00000     0.00000    -0.00002    -0.00000     0.00000    -0.00132
  34      -0.00000    -0.00000     0.00027     0.00000     0.00000     0.00057
  35      -0.00000    -0.00000     0.00079    -0.00000    -0.00000    -0.00015
  36      -0.00004    -0.00002     0.00000     0.00000     0.00002     0.00000
  37      -0.00087    -0.00045    -0.00000    -0.64847     0.88622    -0.00000
  38      -0.00126     0.00015    -0.00000     0.88701     0.64815    -0.00000
  39       0.22775     0.00347     0.00000     0.00005     0.00019     0.00000
  40       0.10916    -0.18515    -0.00000     0.00003     0.00026    -0.00000
  41      -0.09670    -0.19780    -0.00000    -0.00001    -0.00055    -0.00000
  42      -0.00000    -0.00000     0.00018    -0.00000    -0.00000     0.00041
  43      -0.00000     0.00000    -0.00072     0.00000    -0.00000     0.00074
  44       0.00000    -0.00000     0.00002     0.00000    -0.00000    -0.00014
  45       0.00046     0.00022     0.00000     0.06657     0.26272    -0.00000
  46      -0.00006    -0.00007     0.00000     0.26286    -0.06658     0.00000
  47      -0.00017    -0.00010     0.00000     0.00001     0.00009     0.00000
  48       0.00000     0.00000    -0.00022     0.00000     0.00000     0.00067
  49       0.00000     0.00000     0.00033     0.00000    -0.00000    -0.00028
  50      -0.00000    -0.00000     0.00061    -0.00000    -0.00000    -0.00036
  51       0.00319     0.00187     0.00000    -0.00011    -0.00177    -0.00000
  52      -0.00000    -0.00000    -0.00208     0.00000    -0.00000    -0.00193
  53      -0.00000    -0.00000     0.00023    -0.00000    -0.00000     0.00082
  54       0.00000     0.00000    -0.00057     0.00000    -0.00000     0.00095
  55       0.00046     0.00027     0.00000    -0.00002    -0.00025     0.00000

           25          26          27          28          29          30  
       ----------- ----------- ----------- ----------- ----------- -----------
   1       0.00000    -0.00000    -0.00045     0.00037     0.00059    -0.00000
   2      -0.00063     0.00035     0.00000    -0.00000     0.00000    -0.01201
   3       0.00103     0.00014    -0.00000    -0.00000    -0.00000    -0.06735
   4       0.00106    -0.00063     0.00000     0.00000     0.00000     0.02688
   5      -0.00000    -0.00000     0.00101    -0.00083    -0.00132    -0.00000
   6       0.00079    -0.00044    -0.00000     0.00000    -0.00000     0.15176
   7      -0.00060    -0.00009    -0.00000    -0.00000     0.00000     0.41578
   8      -0.00026    -0.00007     0.00000    -0.00000     0.00000     0.21095
   9       0.00000    -0.00000     0.00008    -0.00007    -0.00011    -0.00000
  10       0.00037    -0.00005    -0.00000    -0.00000     0.00000    -0.00037
  11       0.08416     0.96757    -0.00000     0.00000    -0.00000    -0.00066
  12       0.21065     0.12154    -0.00000     0.00000     0.00000     0.00046
  13       0.95596    -0.11071     0.00000    -0.00000     0.00000    -0.00043
  14       0.00000     0.00000    -0.00272     0.00223     0.00358    -0.00000
  15      -0.00006     0.00024     0.00000     0.00000     0.00000    -0.13608
  16       0.00053     0.00024    -0.00000    -0.00000     0.00000    -0.61268
  17      -0.00025     0.00005    -0.00000    -0.00000     0.00000    -0.36918
  18      -0.00000     0.00000     0.49856     0.54829     0.81116    -0.00000
  19      -0.00000     0.00000     0.86157    -0.67950    -0.07481    -0.00000
  20      -0.00000    -0.00000     0.46691     0.66614    -0.73836    -0.00000
  21       0.00069    -0.00004     0.00000     0.00000    -0.00000     0.00026
  22      -0.00000    -0.00000    -0.00036     0.00041    -0.00044    -0.00000
  23      -0.00000     0.00000    -0.00041     0.00165     0.00164     0.00000
  24      -0.00007    -0.00080     0.00000     0.00000    -0.00000    -0.00029
  25       1.63156     0.00040     0.00000    -0.00000    -0.00000     0.00020
  26       0.00040     1.62885     0.00000    -0.00000     0.00000    -0.00129
  27       0.00000     0.00000     1.56465    -0.00105    -0.00092    -0.00000
  28      -0.00000    -0.00000    -0.00105     1.56481     0.00081    -0.00000
  29      -0.00000     0.00000    -0.00092     0.00081     1.56585     0.00000
  30       0.00020    -0.00129    -0.00000    -0.00000     0.00000     1.62369
  31       0.00018     0.00078    -0.00000     0.00000     0.00000    -0.00027
  32       0.00088    -0.00031     0.00000    -0.00000     0.00000     0.00074
  33      -0.00001    -0.00010     0.00000     0.00000     0.00000     0.12769
  34       0.00139    -0.00036     0.00000    -0.00000    -0.00000     0.00847
  35      -0.00040     0.00012     0.00000    -0.00000    -0.00000    -0.02526
  36       0.00000     0.00000    -0.00200     0.00165     0.00264     0.00000
  37       0.00000     0.00000    -0.00087     0.00019     0.00039     0.00000
  38       0.00000     0.00000    -0.00049    -0.00006     0.00069    -0.00000
  39       0.00000     0.00000     0.59362    -0.15835     0.21777    -0.00000
  40       0.00000    -0.00000    -0.16257    -0.63092    -0.01249    -0.00000
  41      -0.00000    -0.00000    -0.21456     0.04424     0.61512    -0.00000
  42      -0.00015     0.00016    -0.00000     0.00000    -0.00000    -0.17636
  43       0.00053    -0.00010    -0.00000     0.00000    -0.00000    -0.06108
  44       0.00068    -0.00033     0.00000    -0.00000     0.00000     0.07756
  45      -0.00000     0.00000    -0.00063    -0.00005     0.00046     0.00000
  46      -0.00000    -0.00000     0.00027    -0.00013     0.00015    -0.00000
  47      -0.00000     0.00000    -0.00115     0.00095     0.00152    -0.00000
  48       0.00001     0.00031    -0.00000     0.00000    -0.00000     0.00750
  49       0.00018    -0.00027    -0.00000    -0.00000    -0.00000    -0.02325
  50      -0.00074     0.00040    -0.00000     0.00000    -0.00000     0.00570
  51      -0.00000    -0.00000     0.00110    -0.00090    -0.00145     0.00000
  52      -0.00171     0.00034     0.00000     0.00000     0.00000    -0.01096
  53      -0.00020     0.00046    -0.00000     0.00000    -0.00000    -0.00855
  54       0.00090    -0.00024     0.00000     0.00000    -0.00000    -0.00015
  55      -0.00000     0.00000    -0.00018     0.00014     0.00023    -0.00000

           31          32          33          34          35          36  
       ----------- ----------- ----------- ----------- ----------- -----------
   1       0.00000    -0.00000     0.00000     0.00000    -0.00000    -0.12844
   2       0.01647    -0.06934     0.01408    -0.10771     0.29465    -0.00000
   3      -0.02835     0.00506    -0.29165     0.10790     0.05411     0.00000
   4      -0.06524    -0.01896     0.11600     0.27626     0.09664    -0.00000
   5       0.00000    -0.00000    -0.00000    -0.00000    -0.00000     0.45209
   6      -0.45448     0.10328     0.14093     0.61190    -0.09195    -0.00000
   7       0.08237    -0.24607     0.59556    -0.10943     0.18959    -0.00000
   8       0.16313     0.41009     0.16755    -0.12952    -0.59846     0.00000
   9       0.00000     0.00000     0.00000    -0.00000     0.00000    -0.39474
  10      -0.00079    -0.00181     0.00010     0.00011     0.00078     0.00000
  11       0.00037    -0.00008    -0.00071    -0.00045     0.00013     0.00000
  12       0.00056    -0.00065     0.00161    -0.00019     0.00028    -0.00000
  13      -0.00079     0.00086    -0.00021     0.00173    -0.00078     0.00000
  14      -0.00000    -0.00000    -0.00000     0.00000    -0.00000    -0.11464
  15       0.30829    -0.64461    -0.01074     0.36929    -0.58192     0.00000
  16       0.28983     0.26673     0.60627     0.27823     0.16752    -0.00000
  17      -0.59164    -0.20518     0.32488    -0.51062    -0.33217    -0.00000
  18      -0.00000    -0.00000     0.00000    -0.00000    -0.00000     0.00002
  19      -0.00000    -0.00000     0.00000    -0.00000    -0.00000    -0.00004
  20      -0.00000    -0.00000     0.00000    -0.00000    -0.00000    -0.00002
  21       0.00027    -0.00114    -0.00002     0.00027     0.00079     0.00000
  22       0.00000     0.00000    -0.00000     0.00000    -0.00000     0.00000
  23      -0.00000    -0.00000     0.00000     0.00000    -0.00000     0.00002
  24       0.00044     0.00107    -0.00132     0.00057    -0.00015     0.00000
  25       0.00018     0.00088    -0.00001     0.00139    -0.00040     0.00000
  26       0.00078    -0.00031    -0.00010    -0.00036     0.00012     0.00000
  27      -0.00000     0.00000     0.00000     0.00000     0.00000    -0.00200
  28       0.00000    -0.00000     0.00000    -0.00000    -0.00000     0.00165
  29       0.00000     0.00000     0.00000    -0.00000    -0.00000     0.00264
  30      -0.00027     0.00074     0.12769     0.00847    -0.02526     0.00000
  31       1.62348     0.00114     0.00530    -0.12913    -0.01603    -0.00000
  32       0.00114     1.62208    -0.02665     0.01592    -0.12576     0.00000
  33       0.00530    -0.02665     1.79612    -0.00210    -0.00066    -0.00000
  34      -0.12913     0.01592    -0.00210     1.79812     0.00197     0.00000
  35      -0.01603    -0.12576    -0.00066     0.00197     1.79907    -0.00000
  36      -0.00000     0.00000    -0.00000     0.00000    -0.00000     0.39772
  37      -0.00000    -0.00000     0.00000     0.00000    -0.00000     0.00118
  38      -0.00000     0.00000    -0.00000     0.00000     0.00000     0.00098
  39       0.00000    -0.00000    -0.00000    -0.00000     0.00000     0.00066
  40       0.00000     0.00000     0.00000     0.00000     0.00000     0.00056
  41      -0.00000    -0.00000    -0.00000    -0.00000     0.00000    -0.00160
  42      -0.07690    -0.06325    -0.64977     0.23140     0.42670    -0.00000
  43      -0.01925     0.19040    -0.39550     0.14889    -0.68480     0.00000
  44      -0.18651     0.00646     0.26627     0.76131     0.01181     0.00000
  45      -0.00000     0.00000     0.00000     0.00000     0.00000    -0.00074
  46       0.00000     0.00000    -0.00000    -0.00000     0.00000     0.00014
  47      -0.00000    -0.00000    -0.00000     0.00000     0.00000     2.14478
  48      -0.02043    -0.01342    -0.10643    -0.17551    -0.12989    -0.00000
  49      -0.01250     0.00021     0.21871    -0.08398    -0.04792     0.00000
  50      -0.01125     0.02144    -0.01060    -0.14084     0.20226     0.00000
  51       0.00000     0.00000     0.00000    -0.00000    -0.00000    -0.92654
  52      -0.01437    -0.00365    -0.19047     0.19618     0.09096     0.00000
  53       0.00850     0.00079    -0.23366    -0.21631     0.00911     0.00000
  54      -0.00090     0.01100    -0.07933     0.07435    -0.30117     0.00000
  55      -0.00000     0.00000    -0.00000     0.00000     0.00000     0.23431

           37          38          39          40          41          42  
       ----------- ----------- ----------- ----------- ----------- -----------
   1       0.00026     0.00022     0.00029     0.00024    -0.00070     0.00000
   2      -0.00000     0.00000     0.00000     0.00000     0.00000     0.02335
   3       0.00000    -0.00000    -0.00000     0.00000    -0.00000     0.06095
   4      -0.00000     0.00000     0.00000    -0.00000     0.00000     0.00816
   5      -0.00059    -0.00049    -0.00003    -0.00002     0.00007    -0.00000
   6      -0.00000    -0.00000    -0.00000    -0.00000    -0.00000     0.00234
   7       0.00000     0.00000    -0.00000     0.00000     0.00000    -0.07026
   8       0.00000    -0.00000     0.00000    -0.00000     0.00000    -0.08338
   9      -0.00005    -0.00004    -0.00014    -0.00012     0.00034    -0.00000
  10       0.00000    -0.00000     0.00000    -0.00000    -0.00000     0.00100
  11      -0.00000    -0.00000    -0.00000    -0.00000    -0.00000     0.00039
  12       0.00000     0.00000    -0.00000    -0.00000     0.00000    -0.00125
  13       0.00000     0.00000     0.00000     0.00000    -0.00000     0.00093
  14       0.00160     0.00133    -0.00149    -0.00127     0.00362     0.00000
  15      -0.00000    -0.00000    -0.00000     0.00000     0.00000    -0.01737
  16       0.00000     0.00000    -0.00000     0.00000     0.00000    -0.02747
  17       0.00000    -0.00000    -0.00000     0.00000     0.00000    -0.05106
  18       0.00166     0.00086     0.14695    -0.16523     0.15646    -0.00000
  19      -0.00087    -0.00126     0.22775     0.10916    -0.09670    -0.00000
  20      -0.00045     0.00015     0.00347    -0.18515    -0.19780    -0.00000
  21      -0.00000    -0.00000     0.00000    -0.00000    -0.00000     0.00018
  22      -0.64847     0.88701     0.00005     0.00003    -0.00001    -0.00000
  23       0.88622     0.64815     0.00019     0.00026    -0.00055    -0.00000
  24      -0.00000    -0.00000     0.00000    -0.00000    -0.00000     0.00041
  25       0.00000     0.00000     0.00000     0.00000    -0.00000    -0.00015
  26       0.00000     0.00000     0.00000    -0.00000    -0.00000     0.00016
  27      -0.00087    -0.00049     0.59362    -0.16257    -0.21456    -0.00000
  28       0.00019    -0.00006    -0.15835    -0.63092     0.04424     0.00000
  29       0.00039     0.00069     0.21777    -0.01249     0.61512    -0.00000
  30       0.00000    -0.00000    -0.00000    -0.00000    -0.00000    -0.17636
  31      -0.00000    -0.00000     0.00000     0.00000    -0.00000    -0.07690
  32      -0.00000     0.00000    -0.00000     0.00000    -0.00000    -0.06325
  33       0.00000    -0.00000    -0.00000     0.00000    -0.00000    -0.64977
  34       0.00000     0.00000    -0.00000     0.00000    -0.00000     0.23140
  35      -0.00000     0.00000     0.00000     0.00000     0.00000     0.42670
  36       0.00118     0.00098     0.00066     0.00056    -0.00160    -0.00000
  37       1.56434     0.00065    -0.00051     0.00009     0.00037     0.00000
  38       0.00065     1.56392    -0.00011     0.00018     0.00052    -0.00000
  39      -0.00051    -0.00011     0.70280    -0.00162    -0.00637     0.00000
  40       0.00009     0.00018    -0.00162     0.70341    -0.00284    -0.00000
  41       0.00037     0.00052    -0.00637    -0.00284     0.71105     0.00000
  42       0.00000    -0.00000     0.00000    -0.00000     0.00000     0.88275
  43      -0.00000    -0.00000     0.00000    -0.00000     0.00000    -0.00010
  44      -0.00000    -0.00000    -0.00000     0.00000    -0.00000     0.00570
  45       0.41583     0.50211    -0.00052    -0.00556     0.00458    -0.00000
  46      -0.50175     0.41489    -0.00222     0.00022    -0.00243    -0.00000
  47       0.00068     0.00056    -0.00023    -0.00019     0.00055     0.00000
  48       0.00000     0.00000    -0.00000     0.00000    -0.00000     0.02456
  49      -0.00000     0.00000     0.00000     0.00000     0.00000     0.11707
  50      -0.00000    -0.00000    -0.00000     0.00000    -0.00000    -0.03301
  51      -0.00065    -0.00054    -0.00070    -0.00059     0.00170    -0.00000
  52      -0.00000     0.00000     0.00000    -0.00000     0.00000     0.27352
  53       0.00000     0.00000     0.00000    -0.00000     0.00000     0.14770
  54       0.00000     0.00000     0.00000     0.00000     0.00000    -0.08011
  55       0.00010     0.00009    -0.00671    -0.00571     0.01630     0.00000

           43          44          45          46          47          48  
       ----------- ----------- ----------- ----------- ----------- -----------
   1      -0.00000    -0.00000    -0.00032     0.00006    -0.01268    -0.00000
   2      -0.05666    -0.01886     0.00000     0.00000    -0.00000    -0.03469
   3       0.02387     0.00182    -0.00000    -0.00000     0.00000     0.00864
   4      -0.01801     0.06178    -0.00000     0.00000     0.00000    -0.12333
   5       0.00000    -0.00000     0.00003    -0.00001     0.31224     0.00000
   6       0.02076     0.10633    -0.00000     0.00000     0.00000    -0.10816
   7      -0.08066     0.01634     0.00000     0.00000    -0.00000    -0.06479
   8       0.06850    -0.01291    -0.00000    -0.00000    -0.00000     0.08131
   9      -0.00000    -0.00000     0.00016    -0.00003    -0.08502     0.00000
  10      -0.00051     0.00059     0.00000    -0.00000     0.00000    -0.00004
  11       0.00009    -0.00039    -0.00000     0.00000    -0.00000     0.00048
  12      -0.00060    -0.00027     0.00000     0.00000    -0.00000    -0.00091
  13       0.00063     0.00132     0.00000     0.00000     0.00000     0.00037
  14       0.00000     0.00000     0.00168    -0.00032     1.20827    -0.00000
  15       0.05031     0.02910    -0.00000    -0.00000    -0.00000     0.00947
  16      -0.03420     0.04062     0.00000     0.00000     0.00000    -0.10940
  17       0.00297    -0.03318    -0.00000    -0.00000     0.00000     0.08354
  18       0.00000     0.00000    -0.00037     0.00010     0.00011     0.00000
  19      -0.00000     0.00000     0.00046    -0.00006    -0.00017     0.00000
  20       0.00000    -0.00000     0.00022    -0.00007    -0.00010     0.00000
  21      -0.00072     0.00002     0.00000     0.00000     0.00000    -0.00022
  22       0.00000     0.00000     0.06657     0.26286     0.00001     0.00000
  23      -0.00000    -0.00000     0.26272    -0.06658     0.00009     0.00000
  24       0.00074    -0.00014    -0.00000     0.00000     0.00000     0.00067
  25       0.00053     0.00068    -0.00000    -0.00000    -0.00000     0.00001
  26      -0.00010    -0.00033     0.00000    -0.00000     0.00000     0.00031
  27      -0.00000     0.00000    -0.00063     0.00027    -0.00115    -0.00000
  28       0.00000    -0.00000    -0.00005    -0.00013     0.00095     0.00000
  29      -0.00000     0.00000     0.00046     0.00015     0.00152    -0.00000
  30      -0.06108     0.07756     0.00000    -0.00000    -0.00000     0.00750
  31      -0.01925    -0.18651    -0.00000     0.00000    -0.00000    -0.02043
  32       0.19040     0.00646     0.00000     0.00000    -0.00000    -0.01342
  33      -0.39550     0.26627     0.00000    -0.00000    -0.00000    -0.10643
  34       0.14889     0.76131     0.00000    -0.00000     0.00000    -0.17551
  35      -0.68480     0.01181     0.00000     0.00000     0.00000    -0.12989
  36       0.00000     0.00000    -0.00074     0.00014     2.14478    -0.00000
  37      -0.00000    -0.00000     0.41583    -0.50175     0.00068     0.00000
  38      -0.00000    -0.00000     0.50211     0.41489     0.00056     0.00000
  39       0.00000    -0.00000    -0.00052    -0.00222    -0.00023    -0.00000
  40      -0.00000     0.00000    -0.00556     0.00022    -0.00019     0.00000
  41       0.00000    -0.00000     0.00458    -0.00243     0.00055    -0.00000
  42      -0.00010     0.00570    -0.00000    -0.00000     0.00000     0.02456
  43       0.87483     0.00008    -0.00000    -0.00000     0.00000    -0.05878
  44       0.00008     0.87779    -0.00000     0.00000    -0.00000     0.09906
  45      -0.00000    -0.00000     0.70271     0.00139     0.00025     0.00000
  46      -0.00000     0.00000     0.00139     0.70628    -0.00005    -0.00000
  47       0.00000    -0.00000     0.00025    -0.00005    -8.85920    -0.00000
  48      -0.05878     0.09906     0.00000    -0.00000    -0.00000     0.24863
  49       0.03770     0.01253    -0.00000     0.00000    -0.00000     0.01092
  50       0.08716     0.06184    -0.00000     0.00000     0.00000     0.00071
  51      -0.00000    -0.00000     0.00079    -0.00015     2.79406     0.00000
  52       0.05786     0.12880     0.00000    -0.00000    -0.00000     0.03695
  53       0.07430    -0.31111     0.00000    -0.00000    -0.00000    -0.13137
  54       0.34111     0.04513    -0.00000     0.00000    -0.00000    -0.07196
  55       0.00000     0.00000     0.00755    -0.00143    -1.11143    -0.00000

           49          50          51          52          53          54  
       ----------- ----------- ----------- ----------- ----------- -----------
   1      -0.00000    -0.00000     0.18241    -0.00000     0.00000    -0.00000
   2      -0.00351     0.12485     0.00000     0.00214     0.01609    -0.06890
   3      -0.12697    -0.00193    -0.00000     0.05713     0.03217     0.01058
   4      -0.00414    -0.03495     0.00000     0.02851    -0.06077    -0.01240
   5       0.00000     0.00000    -0.36229     0.00000    -0.00000    -0.00000
   6      -0.01789    -0.10251    -0.00000     0.01794    -0.03261     0.01186
   7       0.12753     0.04546     0.00000    -0.02409    -0.02200    -0.02158
   8       0.07661    -0.09985    -0.00000    -0.02361    -0.00299     0.03054
   9       0.00000    -0.00000     0.13899    -0.00000     0.00000     0.00000
  10       0.00069     0.00074     0.00000    -0.00018    -0.00009    -0.00103
  11      -0.00031     0.00032    -0.00000     0.00012     0.00083    -0.00007
  12       0.00007     0.00028    -0.00000    -0.00024    -0.00070    -0.00074
  13       0.00050    -0.00097    -0.00000     0.00011    -0.00055     0.00112
  14       0.00000     0.00000    -0.00622     0.00000     0.00000    -0.00000
  15      -0.00506    -0.13791     0.00000     0.00616    -0.02135     0.05393
  16       0.08242    -0.00932    -0.00000    -0.01210    -0.05172    -0.02073
  17       0.11074     0.00136    -0.00000    -0.05858     0.00964     0.01102
  18       0.00000     0.00000    -0.00214     0.00000     0.00000     0.00000
  19       0.00000    -0.00000     0.00319    -0.00000    -0.00000     0.00000
  20       0.00000    -0.00000     0.00187    -0.00000    -0.00000     0.00000
  21       0.00033     0.00061     0.00000    -0.00208     0.00023    -0.00057
  22       0.00000    -0.00000    -0.00011     0.00000    -0.00000     0.00000
  23      -0.00000    -0.00000    -0.00177    -0.00000    -0.00000    -0.00000
  24      -0.00028    -0.00036    -0.00000    -0.00193     0.00082     0.00095
  25       0.00018    -0.00074    -0.00000    -0.00171    -0.00020     0.00090
  26      -0.00027     0.00040    -0.00000     0.00034     0.00046    -0.00024
  27      -0.00000    -0.00000     0.00110     0.00000    -0.00000     0.00000
  28      -0.00000     0.00000    -0.00090     0.00000     0.00000     0.00000
  29      -0.00000    -0.00000    -0.00145     0.00000    -0.00000    -0.00000
  30      -0.02325     0.00570     0.00000    -0.01096    -0.00855    -0.00015
  31      -0.01250    -0.01125     0.00000    -0.01437     0.00850    -0.00090
  32       0.00021     0.02144     0.00000    -0.00365     0.00079     0.01100
  33       0.21871    -0.01060     0.00000    -0.19047    -0.23366    -0.07933
  34      -0.08398    -0.14084    -0.00000     0.19618    -0.21631     0.07435
  35      -0.04792     0.20226    -0.00000     0.09096     0.00911    -0.30117
  36       0.00000     0.00000    -0.92654     0.00000     0.00000     0.00000
  37      -0.00000    -0.00000    -0.00065    -0.00000     0.00000     0.00000
  38       0.00000    -0.00000    -0.00054     0.00000     0.00000     0.00000
  39       0.00000    -0.00000    -0.00070     0.00000     0.00000     0.00000
  40       0.00000     0.00000    -0.00059    -0.00000    -0.00000     0.00000
  41       0.00000    -0.00000     0.00170     0.00000     0.00000     0.00000
  42       0.11707    -0.03301    -0.00000     0.27352     0.14770    -0.08011
  43       0.03770     0.08716    -0.00000     0.05786     0.07430     0.34111
  44       0.01253     0.06184    -0.00000     0.12880    -0.31111     0.04513
  45      -0.00000    -0.00000     0.00079     0.00000     0.00000    -0.00000
  46       0.00000     0.00000    -0.00015    -0.00000    -0.00000     0.00000
[...]
  29       0.00000    -0.00000    -3.37029    -0.00000    -0.00000    -0.00000
  30      -0.00000    -0.00000    -0.28704    -0.00000    -0.00000    -0.00000
  31       0.00000    -0.00000    -0.00085     0.00000     0.00000    -0.00000
  32       0.00000     0.00000     0.00088    -0.00000     0.00000    -0.00000
  33       0.00000     0.00000    -0.28621     0.00000    -0.00000    -0.00000
  34      -0.00000     0.00000    -0.00209    -0.00000    -0.00000    -0.00000
  35      -0.00000     0.00000    -0.28613     0.00000    -0.00000    -0.00000
  36      -0.01184    -0.83623     0.00003     2.32920    -5.70782    -5.54920
  37       1.87641    -0.53533     0.00001    -5.52105    -5.32531     3.15910
  38       1.81960     0.50307    -0.00001     5.73888    -2.80392     5.29398
  39       0.78240     1.30034     0.00003     2.32729    -5.70776    -5.54703
  40      -0.01757     2.93646     0.00000     0.00423    -0.00287    -0.00295
  41      -0.74688     1.20834     0.00003     2.32712    -5.70554    -5.54909
  42      -0.27257     0.28370     0.00001    -5.52030    -5.32255     3.15972
  43      -1.10418     0.29110    -0.00001     5.73476    -2.80805     5.29319
  44      -1.05871    -0.31579     0.00001    -5.51669    -5.32417     3.16295
  45      -0.23847    -0.26472    -0.00001     5.73797    -2.80466     5.29109
  46       0.00553     0.39085     0.00002     1.36227    -3.33536    -3.24267
  47      -0.87703     0.25021     0.00000    -3.22969    -3.11025     1.84756
  48      -0.85048    -0.23513    -0.00000     3.35712    -1.64012     3.09193
  49      -0.36569    -0.60778     0.00002     1.36322    -3.33539    -3.24378
  50       0.00821    -1.37250    -0.00000    -0.00211     0.00147     0.00151
  51       0.34909    -0.56478     0.00002     1.36330    -3.33653    -3.24273
  52       0.12740    -0.13260     0.00000    -3.23006    -3.11167     1.84724
  53       0.51609    -0.13606    -0.00000     3.35917    -1.63800     3.09234
  54       0.49484     0.14760     0.00000    -3.23186    -3.11084     1.84559
  55       0.11146     0.12373    -0.00000     3.35757    -1.63974     3.09341

           55  
       -----------
   1       4.87194
   2      12.21260
   3      -2.94690
   4      10.24882
   5       1.20388
   6      -0.00001
   7      -0.00000
   8       0.00000
   9       0.00004
  10       0.00001
  11      -0.00001
  12       0.00001
  13       0.00000
  14      -0.00000
  15      -0.00000
  16      -0.00000
  17       0.00000
  18      -4.20308
  19      -0.00224
  20       0.00233
  21      -4.20090
  22      -0.00552
  23      -4.20068
  24      -5.35600
  25       0.00153
  26      -0.00159
  27      -5.35750
  28       0.00378
  29      -5.35764
  30      -1.28712
  31      -0.00055
  32       0.00058
  33      -1.28658
  34      -0.00137
  35      -1.28653
  36      -0.00002
  37      -0.00000
  38       0.00000
  39      -0.00002
  40      -0.00000
  41      -0.00002
  42      -0.00000
  43       0.00000
  44      -0.00000
  45       0.00000
  46      -0.00001
  47      -0.00000
  48       0.00000
  49      -0.00001
  50       0.00000
  51      -0.00001
  52      -0.00000
  53       0.00000
  54      -0.00000
  55       0.00000
  int_init: cando_txs set to always be  F
                                NWChem TDDFT Module
                                -------------------


            General Information
            -------------------
           No. of orbitals :     110
            Alpha orbitals :      55
             Beta orbitals :      55
        Alpha frozen cores :       0
         Beta frozen cores :       0
     Alpha frozen virtuals :       0
      Beta frozen virtuals :       0
         Spin multiplicity :       3
    Number of AO functions :      55
        Use of symmetry is : off
      Symmetry adaption is : off
         Schwarz screening :  0.10D-07

              XC Information
              --------------
              Hartree-Fock (Exact) Exchange   1.00          
              LC-wPBE(h)Exchange Functional   1.00          
     Perdew 1991 LDA Correlation Functional   1.00 local    
    PerdewBurkeErnz. Correlation Functional   1.00 non-local
           Alpha           :  0.00
           Beta            :  1.00
           Gamma           :  0.39

             TDDFT Information
             -----------------
          Calculation type : TDDFT             
         Wavefunction type : Unrestricted
          No. of electrons :       6
           Alpha electrons :       4
            Beta electrons :       2
              No. of roots :       5
          Max subspacesize :    5000
            Max iterations :     100
               Target root :       1
           Target symmetry : none
      Symmetry restriction : off
                 Algorithm : Optimal
        Davidson threshold :  0.10D-03

            Memory Information
            ------------------
          Available GA space size is       52428793950 doubles
          Available MA space size is        4194412372 doubles
          Length of a trial vector is          204     106
          Algorithm : Incore multiple tensor contraction
          Estimated peak GA usage is           6711300 doubles
          Estimated peak MA usage is             18000 doubles

    5 smallest eigenvalue differences (eV) 
--------------------------------------------------------
  No. Spin  Occ  Vir  Irrep   E(Occ)    E(Vir)   E(Diff)
--------------------------------------------------------
    1    1    4    5 a        -0.390    -0.054     9.140
    2    1    3    5 a        -0.390    -0.054     9.140
    3    1    4    6 a        -0.390     0.064    12.341
    4    1    3    6 a        -0.390     0.064    12.341
    5    1    4    7 a        -0.390     0.090    13.041
--------------------------------------------------------

  Entering Davidson iterations
  Unrestricted

  Iter   NTrls   NConv    DeltaV     DeltaE      Time   
  ----  ------  ------  ---------  ---------  --------- 
    1      5       0     0.11E+00   0.10+100        1.4
    2     15       0     0.42E-01   0.16E-01        2.2
    3     25       0     0.18E-01   0.99E-03        2.3
    4     33       0     0.25E-01   0.13E-02        2.0
    5     41       1     0.13E-01   0.47E-03        1.9
    6     48       2     0.65E-02   0.18E-03        1.8
    7     54       4     0.14E-02   0.26E-04        1.6
    8     56       4     0.13E-03   0.84E-06        0.9
    9     58       5     0.71E-04   0.61E-08        0.9
  ----  ------  ------  ---------  ---------  --------- 
  Convergence criterion met

  Ground state a         -37.816858587808 a.u.
  <S2> =   2.0032

  ----------------------------------------------------------------------------
  Root   1         a              0.000015744 a.u.                0.0004 eV 
  <S2> =   2.0033
  ----------------------------------------------------------------------------
     Transition Moments    X -0.00000   Y  0.00000   Z -0.00000
     Transition Moments   XX  1.63811  XY -5.61575  XZ -1.84874
     Transition Moments   YY 17.41969  YZ  0.11371  ZZ-19.05784
     Dipole Oscillator Strength                    0.0000000000
     Electric Quadrupole                           0.0000000000
     Magnetic Dipole                               0.0000000000
     Total Oscillator Strength                     0.0000000000

     Occ.    2 alpha a   ---  Virt.   11 alpha a   -0.28804 X
     Occ.    2 alpha a   ---  Virt.   11 alpha a   -0.28801 Y
     Occ.    2 alpha a   ---  Virt.   21 alpha a    0.26094 X
     Occ.    2 alpha a   ---  Virt.   21 alpha a    0.26092 Y
     Occ.    2 alpha a   ---  Virt.   22 alpha a    0.06038 X
     Occ.    2 alpha a   ---  Virt.   22 alpha a    0.06038 Y
     Occ.    2 alpha a   ---  Virt.   41 alpha a    0.07038 X
     Occ.    2 alpha a   ---  Virt.   41 alpha a    0.07038 Y
     Occ.    3 alpha a   ---  Virt.    5 alpha a    9.25352 X
     Occ.    3 alpha a   ---  Virt.    5 alpha a    9.22612 Y
     Occ.    3 alpha a   ---  Virt.    9 alpha a   -1.52060 X
     Occ.    3 alpha a   ---  Virt.    9 alpha a   -1.51633 Y
     Occ.    3 alpha a   ---  Virt.   18 alpha a   -0.71484 X
     Occ.    3 alpha a   ---  Virt.   18 alpha a   -0.71303 Y
     Occ.    3 alpha a   ---  Virt.   34 alpha a    0.16468 X
     Occ.    3 alpha a   ---  Virt.   34 alpha a    0.16434 Y
     Occ.    4 alpha a   ---  Virt.    5 alpha a   -8.85534 X
     Occ.    4 alpha a   ---  Virt.    5 alpha a   -8.82912 Y
     Occ.    4 alpha a   ---  Virt.    9 alpha a    1.45517 X
     Occ.    4 alpha a   ---  Virt.    9 alpha a    1.45109 Y
     Occ.    4 alpha a   ---  Virt.   18 alpha a    0.68408 X
     Occ.    4 alpha a   ---  Virt.   18 alpha a    0.68235 Y
     Occ.    4 alpha a   ---  Virt.   34 alpha a   -0.15759 X
     Occ.    4 alpha a   ---  Virt.   34 alpha a   -0.15727 Y
     Occ.    2 beta  a   ---  Virt.   11 beta  a    0.35008 X
     Occ.    2 beta  a   ---  Virt.   11 beta  a    0.35006 Y
     Occ.    2 beta  a   ---  Virt.   20 beta  a    0.57552 X
     Occ.    2 beta  a   ---  Virt.   20 beta  a    0.57551 Y
     Occ.    2 beta  a   ---  Virt.   21 beta  a   -0.18931 X
     Occ.    2 beta  a   ---  Virt.   21 beta  a   -0.18931 Y
     Occ.    2 beta  a   ---  Virt.   40 beta  a    0.23500 X
     Occ.    2 beta  a   ---  Virt.   40 beta  a    0.23500 Y
  ----------------------------------------------------------------------------
  Root   2         a              0.000127652 a.u.                0.0035 eV 
  <S2> =   2.0033
  ----------------------------------------------------------------------------
     Transition Moments    X -0.00000   Y  0.00000   Z -0.00000
     Transition Moments   XX  3.59237  XY -3.67790  XZ  4.25529
     Transition Moments   YY -2.75075  YZ  1.83448  ZZ -0.84171
     Dipole Oscillator Strength                    0.0000000000
     Electric Quadrupole                           0.0000000000
     Magnetic Dipole                               0.0000000000
     Total Oscillator Strength                     0.0000000000

     Occ.    2 alpha a   ---  Virt.   12 alpha a    0.10120 X
     Occ.    2 alpha a   ---  Virt.   12 alpha a    0.10111 Y
     Occ.    2 alpha a   ---  Virt.   22 alpha a   -0.09166 X
     Occ.    2 alpha a   ---  Virt.   22 alpha a   -0.09161 Y
     Occ.    3 alpha a   ---  Virt.    5 alpha a    3.14267 X
     Occ.    3 alpha a   ---  Virt.    5 alpha a    3.06802 Y
     Occ.    3 alpha a   ---  Virt.    9 alpha a   -0.51613 X
     Occ.    3 alpha a   ---  Virt.    9 alpha a   -0.50452 Y
     Occ.    3 alpha a   ---  Virt.   18 alpha a   -0.24240 X
     Occ.    3 alpha a   ---  Virt.   18 alpha a   -0.23747 Y
     Occ.    3 alpha a   ---  Virt.   34 alpha a    0.05575 X
     Occ.    3 alpha a   ---  Virt.   34 alpha a    0.05482 Y
     Occ.    4 alpha a   ---  Virt.    5 alpha a    3.28398 X
     Occ.    4 alpha a   ---  Virt.    5 alpha a    3.20597 Y
     Occ.    4 alpha a   ---  Virt.    9 alpha a   -0.53934 X
     Occ.    4 alpha a   ---  Virt.    9 alpha a   -0.52720 Y
     Occ.    4 alpha a   ---  Virt.   18 alpha a   -0.25330 X
     Occ.    4 alpha a   ---  Virt.   18 alpha a   -0.24815 Y
     Occ.    4 alpha a   ---  Virt.   34 alpha a    0.05825 X
     Occ.    4 alpha a   ---  Virt.   34 alpha a    0.05728 Y
     Occ.    2 beta  a   ---  Virt.   12 beta  a   -0.12298 X
     Occ.    2 beta  a   ---  Virt.   12 beta  a   -0.12292 Y
     Occ.    2 beta  a   ---  Virt.   20 beta  a   -0.06649 X
     Occ.    2 beta  a   ---  Virt.   20 beta  a   -0.06648 Y
     Occ.    2 beta  a   ---  Virt.   21 beta  a   -0.20214 X
     Occ.    2 beta  a   ---  Virt.   21 beta  a   -0.20210 Y
     Occ.    2 beta  a   ---  Virt.   41 beta  a   -0.08253 X
     Occ.    2 beta  a   ---  Virt.   41 beta  a   -0.08253 Y
  ----------------------------------------------------------------------------
  Root   3         a              0.266982192 a.u.                7.2650 eV 
  <S2> =   2.0051
  ----------------------------------------------------------------------------
     Transition Moments    X -0.30202   Y -0.50301   Z -0.36136
     Transition Moments   XX -0.00000  XY  0.00000  XZ  0.00000
     Transition Moments   YY -0.00000  YZ  0.00000  ZZ -0.00000
     Dipole Oscillator Strength                    0.0845119893
     Electric Quadrupole                           0.0000000000
     Magnetic Dipole                               0.0000000000
     Total Oscillator Strength                     0.0845119893

     Occ.    3 alpha a   ---  Virt.    6 alpha a   -0.16525 X
     Occ.    4 alpha a   ---  Virt.    6 alpha a    0.93817 X
     Occ.    4 alpha a   ---  Virt.   10 alpha a   -0.22048 X
     Occ.    4 alpha a   ---  Virt.   15 alpha a    0.05278 X
     Occ.    2 beta  a   ---  Virt.    4 beta  a    0.14969 X
     Occ.    2 beta  a   ---  Virt.    5 beta  a    0.08007 X
     Occ.    2 beta  a   ---  Virt.    8 beta  a    0.07789 X
  ----------------------------------------------------------------------------
  Root   4         a              0.266982212 a.u.                7.2650 eV 
  <S2> =   2.0051
  ----------------------------------------------------------------------------
     Transition Moments    X  0.58838   Y -0.10748   Z -0.34216
     Transition Moments   XX  0.00000  XY -0.00000  XZ  0.00000
     Transition Moments   YY  0.00000  YZ -0.00000  ZZ  0.00000
     Dipole Oscillator Strength                    0.0845119692
     Electric Quadrupole                           0.0000000000
     Magnetic Dipole                               0.0000000000
     Total Oscillator Strength                     0.0845119692

     Occ.    3 alpha a   ---  Virt.    6 alpha a   -0.93817 X
     Occ.    3 alpha a   ---  Virt.   10 alpha a    0.22048 X
     Occ.    3 alpha a   ---  Virt.   15 alpha a   -0.05278 X
     Occ.    4 alpha a   ---  Virt.    6 alpha a   -0.16525 X
     Occ.    2 beta  a   ---  Virt.    4 beta  a   -0.08007 X
     Occ.    2 beta  a   ---  Virt.    5 beta  a    0.14969 X
     Occ.    2 beta  a   ---  Virt.    9 beta  a   -0.07789 X
  ----------------------------------------------------------------------------
  Root   5         a              0.307964789 a.u.                8.3802 eV 
  <S2> =   2.0041
  ----------------------------------------------------------------------------
     Transition Moments    X -0.00000   Y -0.00000   Z -0.00000
     Transition Moments   XX -1.01707  XY -0.52528  XZ -0.09259
     Transition Moments   YY  0.40219  YZ  0.60009  ZZ  0.61488
     Dipole Oscillator Strength                    0.0000000000
     Electric Quadrupole                           0.0000002227
     Magnetic Dipole                               0.0000000000
     Total Oscillator Strength                     0.0000002227

     Occ.    3 alpha a   ---  Virt.    8 alpha a    0.69451 X
     Occ.    3 alpha a   ---  Virt.   17 alpha a    0.12414 X
     Occ.    4 alpha a   ---  Virt.    7 alpha a    0.69451 X
     Occ.    4 alpha a   ---  Virt.   16 alpha a    0.12414 X

              Target root =      1
          Target symmetry = none
      Ground state energy =    -37.816858587808
        Excitation energy =      0.000015744314
     Excited state energy =    -37.816842843494

  stored tddft:energy   -37.816842843493632     

 Task  times  cpu:       14.2s     wall:       16.7s


                                NWChem Input Module
                                -------------------


 Summary of allocated global arrays
-----------------------------------
  No active global arrays


MA_summarize_allocated_blocks: starting scan ...
heap block 'gridpts', handle 102, address 0x13b34ba8:
	type of elements:		double precision
	number of elements:		1048466375
	address of client space:	0x13b34c00
	index for client space:		13157591
	total number of bytes:		8387731096
MA_summarize_allocated_blocks: scan completed: 1 heap block, 0 stack blocks
MA usage statistics:

	allocation statistics:
					      heap	     stack
					      ----	     -----
	current number of blocks	         1	         0
	maximum number of blocks	        18	        54
	current total bytes		8387731096	         0
	maximum total bytes		8388032168	  22513208
	maximum total K-bytes		   8388033	     22514
	maximum total M-bytes		      8389	        23


                                     CITATION
                                     --------
                Please cite the following reference when publishing
                           results obtained with NWChem:

          E. Apra, E. J. Bylaska, W. A. de Jong, N. Govind, K. Kowalski,
       T. P. Straatsma, M. Valiev, H. J. J. van Dam, Y. Alexeev, J. Anchell,
       V. Anisimov, F. W. Aquino, R. Atta-Fynn, J. Autschbach, N. P. Bauman,
     J. C. Becca, D. E. Bernholdt, K. Bhaskaran-Nair, S. Bogatko, P. Borowski,
         J. Boschen, J. Brabec, A. Bruner, E. Cauet, Y. Chen, G. N. Chuev,
      C. J. Cramer, J. Daily, M. J. O. Deegan, T. H. Dunning Jr., M. Dupuis,
   K. G. Dyall, G. I. Fann, S. A. Fischer, A. Fonari, H. Fruchtl, L. Gagliardi,
      J. Garza, N. Gawande, S. Ghosh, K. Glaesemann, A. W. Gotz, J. Hammond,
       V. Helms, E. D. Hermes, K. Hirao, S. Hirata, M. Jacquelin, L. Jensen,
   B. G. Johnson, H. Jonsson, R. A. Kendall, M. Klemm, R. Kobayashi, V. Konkov,
      S. Krishnamoorthy, M. Krishnan, Z. Lin, R. D. Lins, R. J. Littlefield,
      A. J. Logsdail, K. Lopata, W. Ma, A. V. Marenich, J. Martin del Campo,
   D. Mejia-Rodriguez, J. E. Moore, J. M. Mullin, T. Nakajima, D. R. Nascimento,
    J. A. Nichols, P. J. Nichols, J. Nieplocha, A. Otero-de-la-Roza, B. Palmer,
    A. Panyala, T. Pirojsirikul, B. Peng, R. Peverati, J. Pittner, L. Pollack,
   R. M. Richard, P. Sadayappan, G. C. Schatz, W. A. Shelton, D. W. Silverstein,
   D. M. A. Smith, T. A. Soares, D. Song, M. Swart, H. L. Taylor, G. S. Thomas,
            V. Tipparaju, D. G. Truhlar, K. Tsemekhman, T. Van Voorhis,
      A. Vazquez-Mayagoitia, P. Verma, O. Villa, A. Vishnu, K. D. Vogiatzis,
        D. Wang, J. H. Weare, M. J. Williamson, T. L. Windus, K. Wolinski,
        A. T. Wong, Q. Wu, C. Yang, Q. Yu, M. Zacharias, Z. Zhang, Y. Zhao,
                                and R. J. Harrison
                        "NWChem: Past, present, and future
                         J. Chem. Phys. 152, 184102 (2020)
                               doi:10.1063/5.0004997

                                      AUTHORS
                                      -------
  E. Apra, E. J. Bylaska, N. Govind, K. Kowalski, M. Valiev, D. Mejia-Rodriguez,
       A. Kunitsa, N. P. Bauman, A. Panyala, W. A. de Jong, T. P. Straatsma,
   H. J. J. van Dam, D. Wang, T. L. Windus, J. Hammond, J. Autschbach, A. Woods,
    K. Bhaskaran-Nair, J. Brabec, K. Lopata, S. A. Fischer, S. Krishnamoorthy,
     M. Jacquelin, W. Ma, M. Klemm, O. Villa, Y. Chen, V. Anisimov, F. Aquino,
     S. Hirata, M. T. Hackler, E. Hermes, L. Jensen, J. E. Moore, J. C. Becca,
      V. Konjkov, T. Risthaus, M. Malagoli, A. Marenich, A. Otero-de-la-Roza,
        J. Mullin, P. Nichols, R. Peverati, J. Pittner, Y. Zhao, P.-D. Fan,
        A. Fonari, M. J. Williamson, R. J. Harrison, J. R. Rehr, M. Dupuis,
     D. Silverstein, D. M. A. Smith, J. Nieplocha, V. Tipparaju, M. Krishnan,
     B. E. Van Kuiken, A. Vazquez-Mayagoitia, M. Swart, Q. Wu, T. Van Voorhis,
     A. A. Auer, M. Nooijen, L. D. Crosby, E. Brown, G. Cisneros, G. I. Fann,
   H. Fruchtl, J. Garza, K. Hirao, R. A. Kendall, J. A. Nichols, K. Tsemekhman,
    K. Wolinski, J. Anchell, D. E. Bernholdt, P. Borowski, T. Clark, D. Clerc,
   H. Dachsel, M. J. O. Deegan, K. Dyall, D. Elwood, E. Glendening, M. Gutowski,
   A. C. Hess, J. Jaffe, B. G. Johnson, J. Ju, R. Kobayashi, R. Kutteh, Z. Lin,
   R. Littlefield, X. Long, B. Meng, T. Nakajima, S. Niu, L. Pollack, M. Rosing,
   K. Glaesemann, G. Sandrone, M. Stave, H. Taylor, G. Thomas, J. H. van Lenthe,
                               A. T. Wong, Z. Zhang.

 Total times  cpu:       14.2s     wall:       17.1s
