 argument  1 = /home/aditisingh4812/nw_chem/nwchem-run/nwchem-run/tddft/open/open_atom/geom-MOL/cl.nw
                                         
                                         


             Northwest Computational Chemistry Package (NWChem) 7.2.3
             --------------------------------------------------------


                    Environmental Molecular Sciences Laboratory
                       Pacific Northwest National Laboratory
                                Richland, WA 99352

                              Copyright (c) 1994-2022
                       Pacific Northwest National Laboratory
                            Battelle Memorial Institute

             NWChem is an open-source computational chemistry package
                        distributed under the terms of the
                      Educational Community License (ECL) 2.0
             A copy of the license is included with this distribution
                              in the LICENSE.TXT file

                                  ACKNOWLEDGMENT
                                  --------------

            This software and its documentation were developed at the
            EMSL at Pacific Northwest National Laboratory, a multiprogram
            national laboratory, operated for the U.S. Department of Energy
            by Battelle under Contract Number DE-AC05-76RL01830. Support
            for this work was provided by the Department of Energy Office
            of Biological and Environmental Research, Office of Basic
            Energy Sciences, and the Office of Advanced Scientific Computing.


           Job information
           ---------------

    hostname        = p17
    program         = /home/aditisingh4812/nw_chem/nwchem-7.2.3-release.revision-d690e065-srconly.2024-08-27/nwchem-7.2.3/bin/LINUX64/nwchem
    date            = Thu May  8 11:49:34 2025

    compiled        = Mon_Apr_07_18:51:54_2025
    source          = /home/aditisingh4812/nw_chem/nwchem-7.2.3-release.revision-d690e065-srconly.2024-08-27/nwchem-7.2.3
    nwchem branch   = 7.2.3
    nwchem revision = d690e065
    ga revision     = 5.8.0
    use scalapack   = F
    input           = /home/aditisingh4812/nw_chem/nwchem-run/nwchem-run/tddft/open/open_atom/geom-MOL/cl.nw
    prefix          = cl.
    data base       = ./cl.db
    status          = startup
    nproc           =        8
    time left       =     -1s



           Memory information
           ------------------

    heap     = 2621439998 doubles =  20000.0 Mbytes
    stack    = 2621439995 doubles =  20000.0 Mbytes
    global   = 6553600000 doubles =  50000.0 Mbytes (distinct from heap & stack)
    total    = ********** doubles =  90000.0 Mbytes
    verify   = yes
    hardfail = no 


           Directory information
           ---------------------

  0 permanent = .
  0 scratch   = .




                                NWChem Input Module
                                -------------------



 Scaling coordinates for geometry "geometry" by  1.889725989
 (inverse scale =  0.529177249)



                             Geometry "geometry" -> ""
                             -------------------------

 Output coordinates in angstroms (scale by  1.889725989 to convert to a.u.)

  No.       Tag          Charge          X              Y              Z
 ---- ---------------- ---------- -------------- -------------- --------------
    1 Cl                  17.0000     0.00000000     0.00000000     0.00000000

      Atomic Mass 
      ----------- 

      Cl                34.968850


 Effective nuclear repulsion energy (a.u.)       0.0000000000

            Nuclear Dipole moment (a.u.) 
            ----------------------------
        X                 Y               Z
 ---------------- ---------------- ----------------
     0.0000000000     0.0000000000     0.0000000000


            XYZ format geometry
            -------------------
     1
 geometry
 Cl                    0.00000000     0.00000000     0.00000000



 Summary of "ao basis" -> "" (cartesian)
 ------------------------------------------------------------------------------
       Tag                 Description            Shells   Functions and Types
 ---------------- ------------------------------  ------  ---------------------
 *                        aug-cc-pVTZ                 on all atoms 


  pbe96 is a nonlocal functional; adding pw91lda local functional. 

                                 NWChem DFT Module
                                 -----------------


                      Basis "ao basis" -> "ao basis" (cartesian)
                      -----
  Cl (Chlorine)
  -------------
            Exponent  Coefficients 
       -------------- ---------------------------------------------------------
  1 S  4.56100000E+05  0.000049
  1 S  6.83300000E+04  0.000383
  1 S  1.55500000E+04  0.002009
  1 S  4.40500000E+03  0.008386
  1 S  1.43900000E+03  0.029470
  1 S  5.20400000E+02  0.087833
  1 S  2.03100000E+02  0.211473
  1 S  8.39600000E+01  0.365364
  1 S  3.62000000E+01  0.340884
  1 S  1.58300000E+01  0.102133
  1 S  6.33400000E+00  0.003117
  1 S  2.69400000E+00  0.001058
  1 S  4.31300000E-01  0.000156

  2 S  4.56100000E+05 -0.000014
  2 S  6.83300000E+04 -0.000107
  2 S  1.55500000E+04 -0.000565
  2 S  4.40500000E+03 -0.002361
  2 S  1.43900000E+03 -0.008459
  2 S  5.20400000E+02 -0.025964
  2 S  2.03100000E+02 -0.068636
  2 S  8.39600000E+01 -0.141874
  2 S  3.62000000E+01 -0.199319
  2 S  1.58300000E+01 -0.019566
  2 S  6.33400000E+00  0.499741
  2 S  2.69400000E+00  0.563736
  2 S  4.31300000E-01 -0.008351

  3 S  4.56100000E+05  0.000004
  3 S  6.83300000E+04  0.000032
  3 S  1.55500000E+04  0.000171
  3 S  4.40500000E+03  0.000714
  3 S  1.43900000E+03  0.002567
  3 S  5.20400000E+02  0.007886
  3 S  2.03100000E+02  0.021087
  3 S  8.39600000E+01  0.044226
  3 S  3.62000000E+01  0.065167
  3 S  1.58300000E+01  0.006030
  3 S  6.33400000E+00 -0.206495
  3 S  2.69400000E+00 -0.405871
  3 S  4.31300000E-01  0.725661

  4 S  9.76800000E-01  1.000000

  5 S  1.62500000E-01  1.000000

  6 S  5.91000000E-02  1.000000

  7 P  6.63300000E+02  0.002404
  7 P  1.56800000E+02  0.019215
  7 P  4.99800000E+01  0.088510
  7 P  1.84200000E+01  0.256020
  7 P  7.24000000E+00  0.436927
  7 P  2.92200000E+00  0.350334
  7 P  3.81800000E-01 -0.004584

  8 P  6.63300000E+02 -0.000652
  8 P  1.56800000E+02 -0.005194
  8 P  4.99800000E+01 -0.024694
  8 P  1.84200000E+01 -0.072817
  8 P  7.24000000E+00 -0.134030
  8 P  2.92200000E+00 -0.094774
  8 P  3.81800000E-01  0.564667

  9 P  1.02200000E+00  1.000000

 10 P  1.30100000E-01  1.000000

 11 P  4.19000000E-02  1.000000

 12 D  1.04600000E+00  1.000000

 13 D  3.44000000E-01  1.000000

 14 D  1.35000000E-01  1.000000

 15 F  7.06000000E-01  1.000000

 16 F  3.12000000E-01  1.000000



 Summary of "ao basis" -> "ao basis" (cartesian)
 ------------------------------------------------------------------------------
       Tag                 Description            Shells   Functions and Types
 ---------------- ------------------------------  ------  ---------------------
 Cl                       aug-cc-pVTZ               16       59   6s5p3d2f




 Summary of "ao basis" -> "ao basis" (cartesian)
 ------------------------------------------------------------------------------
       Tag                 Description            Shells   Functions and Types
 ---------------- ------------------------------  ------  ---------------------
 Cl                       aug-cc-pVTZ               16       59   6s5p3d2f




                         Geometry "geometry" -> "geometry"
                         ---------------------------------

 Output coordinates in angstroms (scale by  1.889725989 to convert to a.u.)

  No.       Tag          Charge          X              Y              Z
 ---- ---------------- ---------- -------------- -------------- --------------
    1 Cl                  17.0000     0.00000000     0.00000000     0.00000000

      Atomic Mass 
      ----------- 

      Cl                34.968850


 Effective nuclear repulsion energy (a.u.)       0.0000000000

            Nuclear Dipole moment (a.u.) 
            ----------------------------
        X                 Y               Z
 ---------------- ---------------- ----------------
     0.0000000000     0.0000000000     0.0000000000


                      Basis "ao basis" -> "ao basis" (cartesian)
                      -----
  Cl (Chlorine)
  -------------
            Exponent  Coefficients 
       -------------- ---------------------------------------------------------
  1 S  4.56100000E+05  0.616596
  1 S  6.83300000E+04  1.153654
  1 S  1.55500000E+04  1.993258
  1 S  4.40500000E+03  3.231304
  1 S  1.43900000E+03  4.906992
  1 S  5.20400000E+02  6.820142
  1 S  2.03100000E+02  8.108165
  1 S  8.39600000E+01  7.222130
  1 S  3.62000000E+01  3.585282
  1 S  1.58300000E+01  0.577646
  1 S  6.33400000E+00  0.008868
  1 S  2.69400000E+00  0.001585
  1 S  4.31300000E-01  0.000059

  2 S  4.56100000E+05 -0.183918
  2 S  6.83300000E+04 -0.343532
  2 S  1.55500000E+04 -0.596216
  2 S  4.40500000E+03 -0.967417
  2 S  1.43900000E+03 -1.497446
  2 S  5.20400000E+02 -2.143458
  2 S  2.03100000E+02 -2.797882
  2 S  8.39600000E+01 -2.981610
  2 S  3.62000000E+01 -2.228814
  2 S  1.58300000E+01 -0.117655
  2 S  6.33400000E+00  1.511810
  2 S  2.69400000E+00  0.898189
  2 S  4.31300000E-01 -0.003368

  3 S  4.56100000E+05  0.081248
  3 S  6.83300000E+04  0.151638
  3 S  1.55500000E+04  0.263533
  3 S  4.40500000E+03  0.427109
  3 S  1.43900000E+03  0.663367
  3 S  5.20400000E+02  0.950293
  3 S  2.03100000E+02  1.254773
  3 S  8.39600000E+01  1.356782
  3 S  3.62000000E+01  1.063734
  3 S  1.58300000E+01  0.052931
  3 S  6.33400000E+00 -0.911889
  3 S  2.69400000E+00 -0.943974
  3 S  4.31300000E-01  0.427162

  4 S  9.76800000E-01  0.700268

  5 S  1.62500000E-01  0.182411

  6 S  5.91000000E-02  0.085428

  7 P  6.63300000E+02 11.869963
  7 P  1.56800000E+02 15.635405
  7 P  4.99800000E+01 17.249514
  7 P  1.84200000E+01 14.327704
  7 P  7.24000000E+00  7.609792
  7 P  2.92200000E+00  1.962787
  7 P  3.81800000E-01 -0.002018

  8 P  6.63300000E+02 -5.363177
  8 P  1.56800000E+02 -7.041459
  8 P  4.99800000E+01 -8.017219
  8 P  1.84200000E+01 -6.788651
  8 P  7.24000000E+00 -3.888801
  8 P  2.92200000E+00 -0.884567
  8 P  3.81800000E-01  0.414026

  9 P  1.02200000E+00  1.464717

 10 P  1.30100000E-01  0.111375

 11 P  4.19000000E-02  0.027021

 12 D  1.04600000E+00  1.780696

 13 D  3.44000000E-01  0.254324

 14 D  1.35000000E-01  0.049487

 15 F  7.06000000E-01  0.672613

 16 F  3.12000000E-01  0.107103



    Basis function labels
    ---------------------
       No.  Atm El Type
       ---  --- -- ----
        1    1 Cl s          
        2    1 Cl s          
        3    1 Cl s          
        4    1 Cl s          
        5    1 Cl s          
        6    1 Cl s          
        7    1 Cl px         
        8    1 Cl py         
        9    1 Cl pz         
       10    1 Cl px         
       11    1 Cl py         
       12    1 Cl pz         
       13    1 Cl px         
       14    1 Cl py         
       15    1 Cl pz         
       16    1 Cl px         
       17    1 Cl py         
       18    1 Cl pz         
       19    1 Cl px         
       20    1 Cl py         
       21    1 Cl pz         
       22    1 Cl dxx        
       23    1 Cl dxy        
       24    1 Cl dxz        
       25    1 Cl dyy        
       26    1 Cl dyz        
       27    1 Cl dzz        
       28    1 Cl dxx        
       29    1 Cl dxy        
       30    1 Cl dxz        
       31    1 Cl dyy        
       32    1 Cl dyz        
       33    1 Cl dzz        
       34    1 Cl dxx        
       35    1 Cl dxy        
       36    1 Cl dxz        
       37    1 Cl dyy        
       38    1 Cl dyz        
       39    1 Cl dzz        
       40    1 Cl fxxx       
       41    1 Cl fxxy       
       42    1 Cl fxxz       
       43    1 Cl fxyy       
       44    1 Cl fxyz       
       45    1 Cl fxzz       
       46    1 Cl fyyy       
       47    1 Cl fyyz       
       48    1 Cl fyzz       
       49    1 Cl fzzz       
       50    1 Cl fxxx       
       51    1 Cl fxxy       
       52    1 Cl fxxz       
       53    1 Cl fxyy       
       54    1 Cl fxyz       
       55    1 Cl fxzz       
       56    1 Cl fyyy       
       57    1 Cl fyyz       
       58    1 Cl fyzz       
       59    1 Cl fzzz       
  int_init: cando_txs set to always be  F

 Schwarz integral screening summary 
 ---------------------------------- 

        No. of atom pairs =       1
       No. of shell pairs =     136

 Atomic screening 

   value      no.     value      no.     value      no.     value      no.   
  -------- ------    -------- ------    -------- ------    -------- ------   
  0.00D+00      0    1.00D-13      0    1.00D-12      0    1.00D-11      0
  1.00D-10      0    1.00D-09      0    1.00D-08      0    1.00D-07      0
  1.00D-06      0    1.00D-05      0    1.00D-04      0    1.00D-03      0
  1.00D-02      0    1.00D-01      0    1.00D+00      0    1.00D+01      1


 Shell screening 

   value      no.     value      no.     value      no.     value      no.   
  -------- ------    -------- ------    -------- ------    -------- ------   
  0.00D+00      0    1.00D-13      0    1.00D-12      0    1.00D-11      0
  1.00D-10      0    1.00D-09      0    1.00D-08      0    1.00D-07      0
  1.00D-06      0    1.00D-05      0    1.00D-04      1    1.00D-03      5
  1.00D-02      7    1.00D-01     42    1.00D+00     80    1.00D+01      1


  Caching 1-el integrals 
  atom                     1  - neighbor  & S                     1   10.000000000000000       exp AB    4.1900000000000034E-002   4.1900000000000034E-002
 zmins =     0.041900000    0.041900000 lprod =   2 range =        16.24 acc   0.10D-06
 sh     0.000000000
  Center:                     1  Radial Pts. & Wghts. 
    1        0.000002245           3.3952280E-17
    2        0.000017961           8.6918476E-15
    3        0.000060620           2.2276699E-13
    4        0.000143693           2.2252437E-12
    5        0.000280655           1.3264335E-11
    6        0.000484984           5.7039656E-11
    7        0.000770162           1.9579837E-10
    8        0.001149681           5.6993019E-10
    9        0.001637041           1.4626511E-09
   10        0.002245758           3.3987887E-09
   11        0.002989364           7.2881369E-09
   12        0.003881412           1.4625341E-08
   13        0.004935481           2.7759824E-08
   14        0.006165182           5.0250880E-08
   15        0.007584161           8.7324748E-08
   16        0.009206105           1.4645230E-07
   17        0.011044753           2.3806782E-07
   18        0.013113894           3.7645157E-07
   19        0.015427382           5.8080076E-07
   20        0.017999141           8.7651630E-07
   21        0.020843174           1.2967350E-06
   22        0.023973567           1.8841403E-06
   23        0.027404507           2.6930865E-06
   24        0.031150284           3.7920772E-06
   25        0.035225305           5.2666399E-06
   26        0.039644104           7.2226454E-06
   27        0.044421354           9.7901236E-06
   28        0.049571879           1.3127633E-05
   29        0.055110668           1.7427251E-05
   30        0.061052886           2.2920248E-05
   31        0.067413889           2.9883531E-05
   32        0.074209242           3.8646941E-05
   33        0.081454730           4.9601494E-05
   34        0.089166379           6.3208683E-05
   35        0.097360471           8.0010943E-05
   36        0.106053564           1.0064343E-04
   37        0.115262508           1.2584727E-04
   38        0.125004473           1.5648434E-04
   39        0.135296963           1.9355397E-04
   40        0.146157843           2.3821159E-04
   41        0.157605361           2.9178956E-04
   42        0.169658177           3.5582057E-04
   43        0.182335387           4.3206379E-04
   44        0.195656553           5.2253414E-04
   45        0.209641733           6.2953501E-04
   46        0.224311513           7.5569488E-04
   47        0.239687041           9.0400831E-04
   48        0.255790066           1.0778818E-03
   49        0.272642972           1.2811851E-03
   50        0.290268823           1.5183089E-03
   51        0.308691404           1.7942287E-03
   52        0.327935269           2.1145779E-03
   53        0.348025791           2.4857281E-03
   54        0.368989215           2.9148802E-03
   55        0.390852712           3.4101669E-03
   56        0.413644446           3.9807670E-03
   57        0.437393631           4.6370352E-03
   58        0.462130609           5.3906470E-03
   59        0.487886919           6.2547636E-03
   60        0.514695380           7.2442161E-03
   61        0.542590180           8.3757158E-03
   62        0.571606966           9.6680900E-03
   63        0.601782949           1.1142551E-02
   64        0.633157009           1.2822998E-02
   65        0.665769820           1.4736367E-02
   66        0.699663970           1.6913017E-02
   67        0.734884110           1.9387185E-02
   68        0.771477097           2.2197489E-02
   69        0.809492165           2.5387517E-02
   70        0.848981104           2.9006491E-02
   71        0.889998455           3.3110036E-02
   72        0.932601727           3.7761058E-02
   73        0.976851634           4.3030759E-02
   74        1.022812353           4.8999804E-02
   75        1.070551810           5.5759678E-02
   76        1.120141996           6.3414245E-02
   77        1.171659314           7.2081577E-02
   78        1.225184962           8.1896069E-02
   79        1.280805365           9.3010916E-02
   80        1.338612646           1.0560101E-01
   81        1.398705157           1.1986635E-01
   82        1.461188072           1.3603604E-01
   83        1.526174048           1.5437304E-01
   84        1.593783970           1.7517977E-01
   85        1.664147792           1.9880477E-01
   86        1.737405479           2.2565073E-01
   87        1.813708088           2.5618399E-01
   88        1.893218984           2.9094605E-01
   89        1.976115233           3.3056749E-01
   90        2.062589198           3.7578482E-01
   91        2.152850369           4.2746110E-01
   92        2.247127478           4.8661109E-01
   93        2.345670951           5.5443247E-01
   94        2.448755754           6.3234432E-01
   95        2.556684732           7.2203524E-01
   96        2.669792527           8.2552377E-01
   97        2.788450210           9.4523473E-01
   98        2.913070787           1.0840965E+00
   99        3.044115791           1.2456657E+00
  100        3.182103209           1.4342891E+00
  101        3.327617107           1.6553149E+00
  102        3.481319391           1.9153714E+00
  103        3.643964304           2.2227398E+00
  104        3.816416470           2.5878562E+00
  105        3.999673557           3.0240004E+00
  106        4.194895087           3.5482494E+00
  107        4.403439480           4.1828234E+00
  108        4.626912343           4.9570150E+00
  109        4.867230366           5.9100106E+00
  110        5.126707295           7.0951064E+00
  111        5.408171823           8.5861641E+00
  112        5.715132758           1.0487777E+01
  113        6.052016238           1.2951798E+01
  114        6.424516325           1.6205234E+01
  115        6.840130945           2.0599425E+01
  116        7.309014826           2.6701429E+01
  117        7.845404974           3.5474995E+01
  118        8.470152451           4.8668687E+01
  119        9.215583386           6.9738063E+01
  120       10.135853407           1.0636009E+02
  121       11.332485756           1.7878048E+02
  122       13.033403924           3.5768417E+02
  123       15.965893648           1.0823670E+03
     irreducible set of Lebedev Angular points ;
  0.009523809523810  1.000000000000000  0.000000000000000  0.000000000000000
  0.032142857142857  0.577350269189626  0.577350269189626  0.577350269189626
  0.028571428571429  0.459700843380983  0.000000000000000  0.888073833977115
   total no. of   reducible points:  38; test:  1.00000000
  0.012698412698413  1.000000000000000  0.000000000000000  0.000000000000000
  0.022574955908289  0.707106781186547  0.707106781186547  0.000000000000000
  0.021093750000000  0.577350269189626  0.577350269189626  0.577350269189626
  0.020173335537919  0.301511344577764  0.301511344577764  0.904534033733291
   total no. of   reducible points:  50; test:  1.00000000
  0.000513067179734  1.000000000000000  0.000000000000000  0.000000000000000
  0.016604069565742  0.707106781186547  0.707106781186547  0.000000000000000
 -0.029586038961039  0.577350269189626  0.577350269189626  0.577350269189626
  0.026576207082159  0.480384461415261  0.480384461415261  0.733799385705343
  0.016522170993716  0.320772648980776  0.000000000000000  0.947156221362588
   total no. of   reducible points:  74; test:  1.00000000
  0.011544011544012  1.000000000000000  0.000000000000000  0.000000000000000
  0.011943909085856  0.577350269189626  0.577350269189626  0.577350269189626
  0.011110555710603  0.369602846454150  0.369602846454150  0.852518311701268
  0.011876501294537  0.694354006602666  0.694354006602666  0.189063552885395
  0.011812303746904  0.374243039090341  0.000000000000000  0.927330657151172
   total no. of   reducible points:  86; test:  1.00000000
  0.003828270494937  1.000000000000000  0.000000000000000  0.000000000000000
  0.009793737512488  0.577350269189626  0.577350269189626  0.577350269189626
  0.008211737283191  0.185115635344736  0.185115635344736  0.965124035086594
  0.009942814891178  0.690421048382292  0.690421048382292  0.215957291845848
  0.009595471336071  0.395689473055942  0.395689473055942  0.828769981252592
  0.009694996361663  0.478369028812150  0.000000000000000  0.878158910604066
   total no. of   reducible points: 110; test:  1.00000000
  0.000599631368862  1.000000000000000  0.000000000000000  0.000000000000000
  0.007372999718621  0.707106781186547  0.707106781186547  0.000000000000000
  0.007210515360144  0.577350269189626  0.577350269189626  0.577350269189626
  0.007116355493118  0.676441040011426  0.676441040011426  0.291298882209527
  0.006753829486314  0.417496122796545  0.417496122796545  0.807089818359583
  0.007574394159054  0.157467667203908  0.157467667203908  0.974888643677173
  0.006991087353303  0.140355381171318  0.449332832326956  0.882270011260323
   total no. of   reducible points: 146; test:  1.00000000
  0.005544842902037  1.000000000000000  0.000000000000000  0.000000000000000
  0.006071332770671  0.707106781186547  0.707106781186547  0.000000000000000
  0.006383674773515  0.577350269189626  0.577350269189626  0.577350269189626
  0.005183387587748  0.255125262111413  0.255125262111413  0.932642590312691
  0.006317929009814  0.674360146036277  0.674360146036277  0.300793595137701
  0.006201670006589  0.431891069671941  0.431891069671941  0.791795559393492
  0.005477143385137  0.261393136033599  0.000000000000000  0.965232421976448
  0.005968383987681  0.499045316179604  0.144663074432512  0.854415804684659
   total no. of   reducible points: 170; test:  1.00000000
  0.001782340447245  1.000000000000000  0.000000000000000  0.000000000000000
  0.005716905949977  0.707106781186547  0.707106781186547  0.000000000000000
  0.005573383178849  0.577350269189626  0.577350269189626  0.577350269189626
  0.005608704082588  0.671297344269523  0.671297344269523  0.314196994182586
  0.005158237711805  0.289246562757544  0.289246562757544  0.912509096867474
  0.005518771467274  0.444693317871744  0.444693317871744  0.777493219314767
  0.004106777028169  0.129933544765007  0.129933544765007  0.982972302707253
  0.005051846064615  0.345770219761128  0.000000000000000  0.938319218137592
  0.005530248916233  0.159041710538353  0.836036015482459  0.525118572443642
   total no. of   reducible points: 194; test:  1.00000000
 -0.055226399197273  1.000000000000000  0.000000000000000  0.000000000000000
  0.004450274607445  0.577350269189626  0.577350269189626  0.577350269189626
  0.004496841067921  0.449204468739761  0.449204468739761  0.772289253148364
  0.005049153450479  0.252041949021020  0.252041949021020  0.934317778845812
  0.003976408018052  0.698190665844724  0.698190665844724  0.158302205463478
  0.004401400650381  0.658740524346096  0.658740524346096  0.363485684956727
  0.017245443505444  0.040385440500977  0.040385440500977  0.998367683967727
  0.004231083095357  0.582384230971558  0.000000000000000  0.812913653173365
  0.005198069864064  0.354587739051869  0.000000000000000  0.935022745880593
  0.004695720972569  0.227218180899819  0.486466153588665  0.843636521068894
   total no. of   reducible points: 230; test:  1.00000000
 -0.001313769127327  1.000000000000000  0.000000000000000  0.000000000000000
 -0.002522728704859  0.707106781186547  0.707106781186547  0.000000000000000
  0.004186853881701  0.577350269189626  0.577350269189626  0.577350269189626
  0.005315167977811  0.703937339158548  0.703937339158548  0.094575076403713
  0.004047142377086  0.101252624857241  0.101252624857241  0.989694807462905
  0.004112482394407  0.464744872642054  0.464744872642054  0.753673939250816
  0.003595584899759  0.327742065497163  0.327742065497163  0.886098344997499
  0.004256131351428  0.662033866369997  0.662033866369997  0.351315128564633
  0.004229582700647  0.850650808352040  0.000000000000000  0.525731112119134
  0.004080914225781  0.323348454269290  0.115311201100970  0.939227929749916
  0.004071467593831  0.231479015871260  0.524493924092236  0.819343388819120
   total no. of   reducible points: 266; test:  1.00000000
  0.000854591172513  1.000000000000000  0.000000000000000  0.000000000000000
  0.003599119285026  0.577350269189626  0.577350269189626  0.577350269189626
  0.003449788424306  0.351564034557011  0.351564034557011  0.867643624544083
  0.003604822601420  0.656632941021961  0.656632941021961  0.371034178384821
  0.003576729661743  0.472905413258100  0.472905413258100  0.743452042987556
  0.002352101413689  0.096183085226148  0.096183085226148  0.990705621379408
  0.003108953122414  0.221964523629418  0.221964523629418  0.949454317226443
  0.003650045807677  0.701176641608955  0.701176641608955  0.129238672710514
  0.002982344963172  0.264415288706066  0.000000000000000  0.964408914879206
  0.003600820932216  0.571895589187896  0.000000000000000  0.820326419827759
  0.003571540554273  0.251003475177047  0.800072749407395  0.544867737258077
  0.003392312205006  0.123354853258333  0.412772408316853  0.902442529533000
   total no. of   reducible points: 302; test:  1.00000000
  0.003006796749454  1.000000000000000  0.000000000000000  0.000000000000000
  0.003050627745651  0.577350269189626  0.577350269189626  0.577350269189626
  0.001621104600289  0.706896546391232  0.706896546391232  0.024383301669356
  0.003005701484902  0.479468262571203  0.479468262571203  0.734996850587746
  0.002990992529654  0.192753315487802  0.192753315487802  0.962129055136014
  0.002982170644108  0.693035796132712  0.693035796132712  0.198501311223365
  0.002721564237311  0.360830211552009  0.360830211552009  0.860001812127547
  0.003033513795811  0.649848616149617  0.649848616149617  0.394199888605839
  0.003007949555219  0.193294501323034  0.000000000000000  0.981140782843257
  0.002881964603055  0.380049491989930  0.000000000000000  0.924966152698679
  0.002958357626536  0.289955882549957  0.793453785658232  0.535123047718276
  0.003036020026407  0.096841214551040  0.828080150668686  0.552182074349399
  0.002832187403926  0.183343464704166  0.907465826530513  0.378009189874487
   total no. of   reducible points: 350; test:  1.00000000
  0.000526589796822  1.000000000000000  0.000000000000000  0.000000000000000
  0.002548219972003  0.707106781186547  0.707106781186547  0.000000000000000
  0.002512317418927  0.577350269189626  0.577350269189626  0.577350269189626
  0.002530403801186  0.690934630750911  0.690934630750911  0.212646824707552
  0.002014279020919  0.177483605460916  0.177483605460916  0.967987158791473
  0.002501725168403  0.491434263778475  0.491434263778475  0.719016501040843
  0.002513267174598  0.645666470742426  0.645666470742426  0.407712664897770
  0.002302694782227  0.286128901030764  0.286128901030764  0.914472801120872
  0.001462495621595  0.075680843671780  0.075680843671780  0.994255912631278
  0.002445373437313  0.392725976336800  0.392725976336800  0.831584400419232
  0.002417442375639  0.881813287779429  0.000000000000000  0.471598691151316
  0.001910951282180  0.977642811118265  0.000000000000000  0.210272522857307
  0.002416930044325  0.205482369640304  0.868946032287241  0.450233038258263
  0.002512236854563  0.590515704892527  0.799927854385729  0.106801826075805
  0.002496644054553  0.555015236107681  0.771746262691590  0.310428403516654
  0.002236607760438  0.937180985855372  0.334436314534346  0.099217696364292
   total no. of   reducible points: 434; test:  1.00000000
  0.000309512129531  1.000000000000000  0.000000000000000  0.000000000000000
  0.001852379698597  0.577350269189626  0.577350269189626  0.577350269189626
  0.001871790639278  0.704095493822747  0.704095493822747  0.092190407076898
  0.001858812585438  0.680774406645524  0.680774406645524  0.270356088359165
  0.001852028828296  0.637254693925875  0.637254693925875  0.433373868777154
  0.001846715956151  0.504441970780036  0.504441970780036  0.700768575373573
  0.001818471778163  0.421576178401097  0.421576178401097  0.802836877335274
  0.001749564657281  0.331792073647212  0.331792073647212  0.883078727934133
  0.001617210647254  0.238473670142189  0.238473670142189  0.941414158220403
  0.001384737234852  0.145903644915776  0.145903644915776  0.978480583762694
  0.000976433116505  0.060950341155072  0.060950341155072  0.996278129754016
  0.001857161196774  0.611684344200988  0.000000000000000  0.791101929626902
  0.001705153996396  0.396475534819986  0.000000000000000  0.918045287711454
  0.001300321685886  0.172478200990772  0.000000000000000  0.985013335028002
  0.001842866472905  0.561026380862206  0.351828092773352  0.749310611904116
  0.001802658934377  0.474239284255198  0.263471665593795  0.840047488359050
  0.001849830560444  0.598412649788538  0.181664084036021  0.780320742479920
  0.001713904507107  0.379103540769556  0.172079522565688  0.909213475092374
  0.001555213603397  0.277867319058624  0.082130215819325  0.957102074310073
  0.001802239128009  0.503356427107512  0.089992058420749  0.859379855890721
   total no. of   reducible points: 590; test:  1.00000000
  0.000219294208818  1.000000000000000  0.000000000000000  0.000000000000000
  0.001436433617319  0.707106781186547  0.707106781186547  0.000000000000000
  0.001421940344336  0.577350269189626  0.577350269189626  0.577350269189626
  0.000679812351105  0.050872044105024  0.050872044105024  0.997408677652823
  0.000991318423529  0.122819879017883  0.122819879017883  0.984799753572301
  0.001180207833239  0.202689081440879  0.202689081440879  0.958036675983391
  0.001296599602081  0.284774515646429  0.284774515646429  0.915317950483155
  0.001365871427428  0.365671907897803  0.365671907897803  0.855901928697887
  0.001402988604775  0.442826488671347  0.442826488671347  0.779621319527635
  0.001418645563596  0.514061962724974  0.514061962724974  0.686644447264154
  0.001421376741852  0.630640121916680  0.630640121916680  0.452311920313658
  0.001423996475491  0.671688333202261  0.671688333202261  0.312521305001653
  0.001431554042179  0.697979268533688  0.697979268533688  0.160155803498829
  0.000925440149987  0.144686567419531  0.000000000000000  0.989477537495599
  0.001250239995054  0.339026347541122  0.000000000000000  0.940776878793759
  0.001394365843329  0.533580465126351  0.000000000000000  0.845749305193653
  0.001127089094672  0.069440243933494  0.235518789424233  0.969385863498432
  0.001345753760911  0.226900410952946  0.410218247404573  0.883310360522113
  0.001424957283317  0.080255746077753  0.621430241748161  0.779348105702661
  0.001261523341238  0.146799952789657  0.324528434571739  0.934414827052402
  0.001392547106053  0.157150776982473  0.522448218969663  0.838064133458312
  0.001418761677878  0.236570299315725  0.601754663408956  0.762840624604670
  0.001338366684480  0.077148158667657  0.434657551614116  0.897285336132833
  0.001393700862676  0.306293666621073  0.490882658903762  0.815609223203975
  0.001415914757467  0.382247737952479  0.564876814909950  0.731300793659766
   total no. of   reducible points: 770; test:  1.00000000
  qrot: 

              1        2        3      
    1    1.0000   0.0000   0.0000
    2    0.0000   1.0000   0.0000
    3    0.0000   0.0000   1.0000
  me                     0   done genpts
  me                     2   done genpts
  me                     3   done genpts
  me                     4   done genpts
  me                     5   done genpts
  me                     6   done genpts
  me                     7   done genpts
  me                     1   done genpts
  me                     0   done uprt
  me                     1   done uprt
  me                     2   done uprt
  me                     3   done uprt
  me                     4   done uprt
  me                     5   done uprt
  me                     6   done uprt
  me                     7   done uprt
  me                     0  done mem
  me                     1  done mem
  me                     2  done mem
  me                     3  done mem
  me                     4  done mem
  me                     5  done mem
  me                     6  done mem
  me                     7  done mem
  dftinpanae: itol2e                     8  iaoacc                    14  tol_rho    1.0000000000000000E-010

            General Information
            -------------------
          SCF calculation type: DFT
          Wavefunction type:  spin polarized.
          No. of atoms     :     1
          No. of electrons :    17
           Alpha electrons :     9
            Beta electrons :     8
          Charge           :     0
          Spin multiplicity:     2
          Use of symmetry is: off; symmetry adaption is: off
          Maximum number of iterations:  50
          AO basis - number of functions:    59
                     number of shells:    16
          Convergence on energy requested:  1.00D-06
          Convergence on density requested:  1.00D-05
          Convergence on gradient requested:  5.00D-04

              XC Information
              --------------
                     Hartree-Fock (Exact) Exchange  1.000          
                     LC-wPBE(h)Exchange Functional  1.000          
            Perdew 1991 LDA Correlation Functional  1.000 local    
           PerdewBurkeErnz. Correlation Functional  1.000 non-local

           Range-Separation Parameters        
           ---------------------------
           Alpha           :  0.00
           Beta            :  1.00
           Gamma           :  0.33
           Short-Range HF  :     F

             Grid Information
             ----------------
          Grid used for XC integration:  fine      
          Radial quadrature: Mura-Knowles        
          Angular quadrature: Lebedev. 
          Tag              B.-S. Rad. Rad. Pts. Rad. Cut. Ang. Pts.
          ---              ---------- --------- --------- ---------
          Cl                  1.00      123           8.0       770
          Grid pruning is: on 
          Number of quadrature shells:   123
          Spatial weights used:  Erf1

          Convergence Information
          -----------------------
          Convergence aids based upon iterative change in 
          total energy or number of iterations. 
          Levelshifting, if invoked, occurs when the 
          HOMO/LUMO gap drops below (HL_TOL):  1.00D-02
          DIIS, if invoked, will attempt to extrapolate 
          using up to (NFOCK): 10 stored Fock matrices.

                    Damping( 0%)  Levelshifting(0.5)       DIIS
                  --------------- ------------------- ---------------
          dE  on:    start            ASAP                start   
          dE off:    2 iters         50 iters            50 iters 


      Screening Tolerance Information
      -------------------------------
          Density screening/tol_rho:  1.00D-10
          AO Gaussian exp screening on grid/accAOfunc:  14
          CD Gaussian exp screening on grid/accCDfunc:  20
          XC Gaussian exp screening on grid/accXCfunc:  20
          Schwarz screening/accCoul:  1.00D-08



                         Geometry "geometry" -> "geometry"
                         ---------------------------------

 Output coordinates in angstroms (scale by  1.889725989 to convert to a.u.)

  No.       Tag          Charge          X              Y              Z
 ---- ---------------- ---------- -------------- -------------- --------------
    1 Cl                  17.0000     0.00000000     0.00000000     0.00000000

      Atomic Mass 
      ----------- 

      Cl                34.968850


 Effective nuclear repulsion energy (a.u.)       0.0000000000

            Nuclear Dipole moment (a.u.) 
            ----------------------------
        X                 Y               Z
 ---------------- ---------------- ----------------
     0.0000000000     0.0000000000     0.0000000000

  
  CAM type calculations without CDFIT are
  only available with the direct option.
  Forcing Direct SCF
  


     <<<<<<    Before call to DFT_SCF.    >>>>>>
     <<<<<< date:  May  8  time: 11:49:34 >>>>>>


 Setting tolerance for linear dependence to 1.00D-05



 Setting tolerance for linear dependence to 1.00D-05


 Setting tolerance for linear dependence to 1.00D-05


 Setting tolerance for linear dependence to 1.00D-05
 Setting tolerance for linear dependence to 1.00D-05
 Setting tolerance for linear dependence to 1.00D-05
 Setting tolerance for linear dependence to 1.00D-05
 Setting tolerance for linear dependence to 1.00D-05
  lindep tolerance =    1.0000000000000001E-005
  lindep tolerance =    1.0000000000000001E-005
  lindep tolerance =    1.0000000000000001E-005
  lindep tolerance =    1.0000000000000001E-005
  lindep tolerance =    1.0000000000000001E-005
  lindep tolerance =    1.0000000000000001E-005
  lindep tolerance =    1.0000000000000001E-005
  lindep tolerance =    1.0000000000000001E-005


     <<<<<<    Before 3c-2e initialize.   >>>>>>
     <<<<<< date:  May  8  time: 11:49:34 >>>>>>


 Setting fock-build task_bf   :      -1
                    maxquartet:   10000
                    maxeri    :  129600
                    maxscr    :       0
                    intacc    : 0.0D+00
                    denscreen : T
                    dentol    : 1.0D-06


      Superposition of Atomic Density Guess
      -------------------------------------

 Sum of atomic energies:        -459.48661134

      Non-variational initial energy
      ------------------------------

 Total energy =    -459.280998
 1-e energy   =    -634.872072
 2-e energy   =     175.591075
 HOMO         =      -0.427440
 LUMO         =       0.090691


 Setting fock-build task_bf   :      -1
                    maxquartet:   10000
                    maxeri    :  129600
                    maxscr    :       0
                    intacc    : 0.0D+00
                    denscreen : T
                    dentol    : 1.0D-06


 Wrote molecular orbitals to ./cl.movecs

  WARNING: movecs_in_org=atomic not equal to movecs_in=./cl.movecs
   Time after variat. SCF:      0.7

 Setting fock-build task_bf   :      -1
                    maxquartet:   10000
                    maxeri    :  129600
                    maxscr    :       0
                    intacc    : 0.0D+00
                    denscreen : T
                    dentol    : 1.0D-06

   Time prior to 1st pass:      0.7


     <<<<<<      Before SCF iter loop.    >>>>>>
     <<<<<< date:  May  8  time: 11:49:35 >>>>>>

           DAMPING=T LEVELSHIFTING=F DIISING=T
          itol2e= 8 iAOacc=12 iXCacc=20


     <<<<<<            calling 1-e int    >>>>>>
     <<<<<< date:  May  8  time: 11:49:35 >>>>>>

    Kinetic Matrix Time:          0.0s

           Kinetic energy =    459.103928438131

    Potential Matrix Time:          0.0s


     <<<<<<    Before call to GETVXC.     >>>>>>
     <<<<<< date:  May  8  time: 11:49:35 >>>>>>



     <<<<<<    Before call to fock_2e.    >>>>>>
     <<<<<< date:  May  8  time: 11:49:35 >>>>>>



     <<<<<<     After call to fock_2e.    >>>>>>
     <<<<<< date:  May  8  time: 11:49:35 >>>>>>

    Fock_2e Build Time:          0.2s
  *** grid_quadv0:                    calc_type:                    1
  *** grid_quadv0:                    grid_written: F
  *** grid_quadv0:                    grad: T
  *** grid_quadv0:                    kske: F
  *** grid_quadv0:                    kslap: F
  *** grid_quadv0:                    do_scf: T
  *** grid_quadv0:                    fde_option:                    0
  *** grid_quadv0:                    n_per_rec:                 3070
  *** grid_quadv0:                    calc_type:                    1
  *** grid_quadv0:                    grid_written: F
  *** grid_quadv0:                    grad: T
  *** grid_quadv0:                    kske: F
  *** grid_quadv0:                    kslap: F
  *** grid_quadv0:                    do_scf: T
  *** grid_quadv0:                    fde_option:                    0
  *** grid_quadv0:                    calc_type:                    1
  *** grid_quadv0:                    grid_written: F
  *** grid_quadv0:                    grad: T
  *** grid_quadv0:                    kske: F
  *** grid_quadv0:                    kslap: F
  *** grid_quadv0:                    do_scf: T
  *** grid_quadv0:                    fde_option:                    0
  *** grid_quadv0:                    n_per_rec:                 3070
  *** grid_quadv0:                    calc_type:                    1
  *** grid_quadv0:                    grid_written: F
  *** grid_quadv0:                    grad: T
  *** grid_quadv0:                    kske: F
  *** grid_quadv0:                    kslap: F
  *** grid_quadv0:                    do_scf: T
  *** grid_quadv0:                    fde_option:                    0
  *** grid_quadv0:                    n_per_rec:                 3070
  *** grid_quadv0:                    calc_type:                    1
  *** grid_quadv0:                    grid_written: F
  *** grid_quadv0:                    grad: T
  *** grid_quadv0:                    kske: F
  *** grid_quadv0:                    kslap: F
  *** grid_quadv0:                    do_scf: T
  *** grid_quadv0:                    fde_option:                    0
  *** grid_quadv0:                    n_per_rec:                 3070
  *** grid_quadv0:                    n_per_rec:                 3070
  *** grid_quadv0:                    calc_type:                    1
  *** grid_quadv0:                    grid_written: F
  *** grid_quadv0:                    grad: T
  *** grid_quadv0:                    kske: F
  *** grid_quadv0:                    kslap: F
  *** grid_quadv0:                    do_scf: T
  *** grid_quadv0:                    fde_option:                    0
  *** grid_quadv0:                    n_per_rec:                 3070
  *** grid_quadv0:                    calc_type:                    1
  *** grid_quadv0:                    grid_written: F
  *** grid_quadv0:                    grad: T
  *** grid_quadv0:                    kske: F
  *** grid_quadv0:                    kslap: F
  *** grid_quadv0:                    do_scf: T
  *** grid_quadv0:                    fde_option:                    0
  *** grid_quadv0:                    n_per_rec:                 3070
  *** grid_quadv0:                    calc_type:                    1
  *** grid_quadv0:                    grid_written: F
  *** grid_quadv0:                    grad: T
  *** grid_quadv0:                    kske: F
  *** grid_quadv0:                    kslap: F
  *** grid_quadv0:                    do_scf: T
  *** grid_quadv0:                    fde_option:                    0
  *** grid_quadv0:                    n_per_rec:                 3070
   1: nuse=   8 avail= 12500000Mb on .
   2: nuse=   8 avail= 12500000Mb on .
   3: nuse=   8 avail= 12500000Mb on .
   4: nuse=   8 avail= 12500000Mb on .
   5: nuse=   8 avail= 12500000Mb on .
   6: nuse=   8 avail= 12500000Mb on .
   7: nuse=   8 avail= 12500000Mb on .
   0: nuse=   8 avail= 12500000Mb on .
 l_cube input   11.00

  atom type   l_cube   no. cubes   segmts   rad   sub
 ----------- -------- ----------- -------- ----- -----
        1     10.67        34         3      16     8

 Grid_pts file          = ./cl.gridpts.0
 Record size in doubles =  12289        No. of grid_pts per rec  =   3070
 Max. records in memory =      6        Max. recs in file   = 126656358

 me   0 NQTOTC NQ/cube    8005     444
 me   1 NQTOTC NQ/cube    5447    2723
 me   2 NQTOTC NQ/cube    4958    1652
 me   3 NQTOTC NQ/cube    5382    2691
 me   4 NQTOTC NQ/cube    4742    4742
 me   5 NQTOTC NQ/cube    4382    1460
 me   6 NQTOTC NQ/cube    4351    2175
 me   7 NQTOTC NQ/cube    4667    1555

 XC quadr. integrated density :      17.000000 npts:    41834 nctrs:        1

    Fock_xc Build Time:          0.1s


     <<<<<<    Before call to GETVCOUL.   >>>>>>
     <<<<<< date:  May  8  time: 11:49:35 >>>>>>



     <<<<<<    End of parallel region.    >>>>>>
     <<<<<< date:  May  8  time: 11:49:35 >>>>>>

    Total Fock Matrix Build Time:          0.3s
 Etnew, Ecore, Ecoul, Exc(1), Exc(2), Totsic:   -459.98887114492715       -634.29957769309999        202.30953726999951       -27.998830721826657        0.0000000000000000        0.0000000000000000     
  delta =   -459.98887114492715     
  delta =   -459.98887114492715     


         Total DFT energy =     -459.988871144927
      One electron energy =     -634.299577693100
           Coulomb energy =      202.309537270000
  delta =   -459.98887114492715     
  delta =   -459.98887114492715     
  delta =   -459.98887114492715     
  delta =   -459.98887114492715     
  delta =   -459.98887114492715     
  delta =   -459.98887114492715     
    Exchange-Corr. energy =      -27.998830721827
 Nuclear repulsion energy =        0.000000000000

 Numeric. integr. density =       16.999999999622

     Total iterative time =      2.1s




     <<<<<<        calling diis driver    >>>>>>
     <<<<<< date:  May  8  time: 11:49:35 >>>>>>

 nhist                     1  pulay matrix 
   0.0000E+00
  -1.0000E+00   1.6551E-01


     <<<<<<         called diis driver    >>>>>>
     <<<<<< date:  May  8  time: 11:49:35 >>>>>>


 global array: fock transf[1:59,1:59],  handle: -940 

            1           2           3           4           5           6  
       ----------- ----------- ----------- ----------- ----------- -----------
   1       4.31623    -0.00000     0.00000     0.00000     1.41217    -0.00000
   2      -0.00000     4.72081     0.00919    -0.00682     0.00000     0.41830
   3       0.00000     0.00919     4.73602     0.00324    -0.00000     0.93750
   4       0.00000    -0.00682     0.00324     4.73797    -0.00000    -0.74299
   5       1.41217     0.00000    -0.00000    -0.00000     6.45709     0.00000
   6      -0.00000     0.41830     0.93750    -0.74299     0.00000     1.90971
   7       0.00000     1.11183    -0.57753    -0.11016    -0.00000     0.00327
   8       0.00000    -0.41863    -0.62424    -1.02141    -0.00000    -0.00072
   9       0.76259    -0.00000     0.00000     0.00000     1.27035    -0.00000
  10       0.00000     0.00117     0.00281    -0.00157    -0.00000     0.00769
  11      -1.31336    -0.00000     0.00000     0.00000    -0.71706    -0.00000
  12      -0.00000     0.00310     0.00003    -0.00254     0.00000     0.00560
  13       0.00000    -0.00222     0.00110    -0.00068     0.00000     0.00055
  14      -0.00000     0.00292    -0.00373    -0.00048     0.00000    -0.00355
  15       0.00000    -0.04207    -0.07196     0.04787    -0.00000     0.51083
  16       0.00000     0.07180    -0.00984     0.04946    -0.00000     0.07376
  17      -0.00000    -0.03782     0.06224     0.06001     0.00000     0.01094
  18      -0.00035     0.00000     0.00000    -0.00000    -0.00134    -0.00000
  19       0.00010     0.00000     0.00000    -0.00000     0.00040    -0.00000
  20       0.00155    -0.00000     0.00000    -0.00000     0.00592    -0.00000
  21      -0.00000     0.00032     0.00080    -0.00045    -0.00000     0.00195
  22      -0.00179    -0.00000     0.00000     0.00000    -0.00683    -0.00000
  23      -0.00027    -0.00000     0.00000     0.00000    -0.00105    -0.00000
  24       0.00000     0.19388     0.58960    -0.23391    -0.00000     1.06219
  25       0.00000    -0.62488     0.20869     0.01217    -0.00000    -0.09708
  26      -0.00000    -0.08096    -0.21905    -0.61880     0.00000     0.29047
  27      -0.00000    -0.00133     0.00075     0.00046     0.00000    -0.00034
  28       0.00000    -0.00006     0.00082    -0.00041    -0.00000     0.00165
  29       0.00000    -0.00002    -0.00003    -0.00026    -0.00000     0.00014
  30       0.00085     0.00000    -0.00000     0.00000     0.00203     0.00000
  31      -0.00038    -0.00000     0.00000    -0.00000    -0.00090    -0.00000
  32      -0.00008    -0.00000    -0.00000     0.00000    -0.00020     0.00000
  33      -0.00000    -0.02011    -0.08350     0.06357     0.00000    -0.09504
  34      -0.00000    -0.08281    -0.02589    -0.05636     0.00000    -0.01195
  35      -0.00000     0.05990    -0.06127    -0.06279     0.00000     0.01024
  36       0.02031     0.00000    -0.00000    -0.00000     0.48028     0.00000
  37       0.00000     0.00739    -0.01914    -0.01964    -0.00000    -0.00068
  38       0.00000     0.02669    -0.00962     0.01538    -0.00000     0.01700
  39      -0.00000    -0.01509    -0.01961     0.01357     0.00000     0.07388
  40      -0.00106     0.00000    -0.00000    -0.00000    -0.00252     0.00000
  41       0.00006    -0.00000     0.00000     0.00000     0.00015    -0.00000
  42      -0.00000     0.00000     0.00000    -0.00000    -0.00001    -0.00000
  43      -0.00003    -0.00000     0.00000    -0.00000    -0.00033    -0.00000
  44      -0.00003    -0.00000    -0.00000    -0.00000    -0.00035     0.00000
  45       0.05733     0.00000    -0.00000    -0.00000    -0.17635     0.00000
  46       0.00000     0.03613    -0.04822    -0.01449    -0.00000    -0.02797
  47      -0.00000     0.03184     0.01537     0.05207     0.00000    -0.01661
  48      -0.00000    -0.03753    -0.03988     0.03554     0.00000    -0.11158
  49       0.00001    -0.00000     0.00000     0.00000     0.00012    -0.00000
  50       0.00004    -0.00000     0.00000     0.00000     0.00053    -0.00000
  51      -0.13700     0.00000    -0.00000    -0.00000     0.04938     0.00000
  52       0.00000     0.03569    -0.05530    -0.04779    -0.00000    -0.00060
  53      -0.00000    -0.01485    -0.05721     0.05625     0.00000    -0.05379
  54       0.00000    -0.07031    -0.01766    -0.03476    -0.00000    -0.01006
  55      -0.05294     0.00000    -0.00000    -0.00000    -0.31545     0.00000
  56      -0.00000    -0.00387    -0.04556    -0.02445     0.00000    -0.01618
  57      -0.00000     0.02403     0.02006    -0.04134     0.00000     0.03736
  58       0.00000    -0.04346     0.01277    -0.01917    -0.00000     0.00508
  59       0.03936     0.00000    -0.00000    -0.00000     0.13762     0.00000

            7           8           9          10          11          12  
       ----------- ----------- ----------- ----------- ----------- -----------
   1       0.00000     0.00000     0.76259     0.00000    -1.31336    -0.00000
   2       1.11183    -0.41863    -0.00000     0.00117    -0.00000     0.00310
   3      -0.57753    -0.62424     0.00000     0.00281     0.00000     0.00003
   4      -0.11016    -1.02141     0.00000    -0.00157     0.00000    -0.00254
   5      -0.00000    -0.00000     1.27035    -0.00000    -0.71706     0.00000
   6       0.00327    -0.00072    -0.00000     0.00769    -0.00000     0.00560
   7       1.89563     0.00406     0.00000    -0.00024     0.00000     0.00475
   8       0.00406     1.91228     0.00000    -0.00115     0.00000     0.00157
   9       0.00000     0.00000     2.13590     0.00000    -2.59166    -0.00000
  10      -0.00024    -0.00115     0.00000     2.34539     0.00000     0.00004
  11       0.00000     0.00000    -2.59166     0.00000     5.09799    -0.00000
  12       0.00475     0.00157    -0.00000     0.00004    -0.00000     2.34089
  13      -0.00470    -0.00200    -0.00000     0.00001    -0.00000     0.00068
  14       0.00637     0.00261    -0.00000    -0.00004    -0.00000    -0.00611
  15       0.04592    -0.05867     0.00000     0.01388     0.00000     0.00984
  16      -0.36990     0.36083     0.00000     0.00087     0.00000    -0.00101
  17       0.35830     0.37333    -0.00000    -0.00152    -0.00000     0.00407
  18      -0.00000     0.00000    -0.00097    -0.00000    -0.00049    -0.00000
  19      -0.00000     0.00000     0.00029     0.00000     0.00014    -0.00000
  20       0.00000    -0.00000     0.00428    -0.00000     0.00217    -0.00000
  21      -0.00009    -0.00028    -0.00000     0.70673     0.00000    -0.00008
  22       0.00000     0.00000    -0.00494     0.00000    -0.00250     0.00000
  23       0.00000     0.00000    -0.00076    -0.00000    -0.00038     0.00000
  24      -0.13165    -0.27616     0.00000    -0.00037     0.00000    -0.00048
  25      -1.07996     0.15909     0.00000     0.00002     0.00000    -0.00163
  26       0.13553     1.05723    -0.00000    -0.00005    -0.00000     0.00093
  27      -0.00237    -0.00088    -0.00000     0.00001    -0.00000    -0.47967
  28      -0.00051    -0.00028    -0.00000    -0.00011    -0.00000     0.48239
  29      -0.00016    -0.00022     0.00000    -0.00001     0.00000     0.18443
  30      -0.00000     0.00000     0.00232     0.00000    -0.00423     0.00000
  31       0.00000    -0.00000    -0.00103     0.00000     0.00188    -0.00000
  32       0.00000    -0.00000    -0.00023     0.00000     0.00041     0.00000
  33       0.01343    -0.00346    -0.00000     0.00303    -0.00000     0.00204
  34      -0.05094     0.07861    -0.00000     0.00067    -0.00000     0.00017
  35       0.07712     0.05531    -0.00000     0.00004    -0.00000     0.00075
  36      -0.00000    -0.00000     0.40165     0.00000     0.29373     0.00000
  37      -0.04074    -0.06543     0.00000     0.00112     0.00000    -0.00491
  38      -0.05862     0.04306     0.00000     0.00140     0.00000    -0.00222
  39       0.01472    -0.01023    -0.00000     0.00786    -0.00000     0.00657
  40      -0.00000    -0.00000    -0.00289     0.00000     0.00527    -0.00000
  41       0.00000     0.00000     0.00017     0.00000    -0.00031    -0.00000
  42       0.00000    -0.00000     0.00002    -0.00000    -0.00007    -0.00000
  43       0.00000    -0.00000     0.00078     0.00000    -0.00284    -0.00000
  44       0.00000    -0.00000     0.00085    -0.00000    -0.00307     0.00000
  45      -0.00000    -0.00000     0.54766    -0.00000    -1.95417     0.00000
  46       0.10258     0.04001     0.00000    -0.00231     0.00000     0.00557
  47       0.03460    -0.11249    -0.00000    -0.00009    -0.00000    -0.00096
  48      -0.03262     0.00645    -0.00000    -0.00677    -0.00000    -0.00690
  49       0.00000     0.00000    -0.00030     0.00000     0.00109    -0.00000
  50       0.00000     0.00000    -0.00128     0.00000     0.00463     0.00000
  51      -0.00000    -0.00000    -0.24587    -0.00000     0.94537     0.00000
  52       0.04083     0.03714     0.00000    -0.00097     0.00000     0.00619
  53       0.00624    -0.00952    -0.00000    -0.00672    -0.00000    -0.00483
  54      -0.03653     0.04406     0.00000    -0.00195     0.00000    -0.00342
  55      -0.00000    -0.00000     0.03157    -0.00000    -0.47380     0.00000
  56       0.01495     0.03565    -0.00000    -0.00285    -0.00000     0.00184
  57       0.01221     0.01284    -0.00000     0.00451    -0.00000     0.00568
  58      -0.03398     0.02023     0.00000     0.00053     0.00000    -0.00315
  59      -0.00000    -0.00000     0.05331    -0.00000     0.05243     0.00000

           13          14          15          16          17          18  
       ----------- ----------- ----------- ----------- ----------- -----------
   1       0.00000    -0.00000     0.00000     0.00000    -0.00000    -0.00035
   2      -0.00222     0.00292    -0.04207     0.07180    -0.03782     0.00000
   3       0.00110    -0.00373    -0.07196    -0.00984     0.06224     0.00000
   4      -0.00068    -0.00048     0.04787     0.04946     0.06001    -0.00000
   5       0.00000     0.00000    -0.00000    -0.00000     0.00000    -0.00134
   6       0.00055    -0.00355     0.51083     0.07376     0.01094    -0.00000
   7      -0.00470     0.00637     0.04592    -0.36990     0.35830    -0.00000
   8      -0.00200     0.00261    -0.05867     0.36083     0.37333     0.00000
   9      -0.00000    -0.00000     0.00000     0.00000    -0.00000    -0.00097
  10       0.00001    -0.00004     0.01388     0.00087    -0.00152    -0.00000
  11      -0.00000    -0.00000     0.00000     0.00000    -0.00000    -0.00049
  12       0.00068    -0.00611     0.00984    -0.00101     0.00407    -0.00000
  13       2.35788     0.00485     0.00054    -0.00320    -0.01351     0.00000
  14       0.00485     2.33750    -0.00678    -0.00114     0.00558     0.00000
  15       0.00054    -0.00678     2.14412    -0.00016     0.00013     0.00000
  16      -0.00320    -0.00114    -0.00016     2.12756     0.00048    -0.00000
  17      -0.01351     0.00558     0.00013     0.00048     2.14074     0.00000
  18       0.00000     0.00000     0.00000    -0.00000     0.00000     1.71816
  19       0.00000     0.00000     0.00000    -0.00000     0.00000    -0.00065
  20      -0.00000    -0.00000     0.00000     0.00000     0.00000     0.00423
  21      -0.00002     0.00007     0.00740     0.00047    -0.00082     0.00000
  22      -0.00000     0.00000     0.00000     0.00000    -0.00000    -0.00238
  23       0.00000     0.00000     0.00000     0.00000    -0.00000     0.00074
  24      -0.00045    -0.00012    -0.09235    -0.00714     0.02353     0.00000
  25       0.00097    -0.00322     0.01694    -0.07458     0.05935    -0.00000
  26       0.00406     0.00073    -0.01582    -0.05030    -0.06905     0.00000
  27       0.31787    -0.40270    -0.00147     0.00080    -0.00703    -0.00000
  28       0.07528    -0.51061     0.00619     0.00024    -0.00160     0.00000
  29       0.63251     0.26793     0.00035    -0.00144    -0.00362    -0.00000
  30       0.00000     0.00000     0.00000    -0.00000    -0.00000    -0.10767
  31      -0.00000    -0.00000     0.00000     0.00000     0.00000    -0.01353
  32       0.00000    -0.00000    -0.00000     0.00000    -0.00000     0.70827
  33      -0.00068    -0.00127     0.70102     0.19804    -0.04188    -0.00000
  34       0.00472    -0.00203     0.18900    -0.67721    -0.14490    -0.00000
  35       0.00444     0.00168    -0.07965     0.13058    -0.71188     0.00000
  36       0.00000     0.00000    -0.00000    -0.00000     0.00000    -0.00334
  37       0.00319    -0.00699     0.00234    -0.01519    -0.05827     0.00000
  38       0.00410    -0.00581     0.00485     0.06774    -0.00646    -0.00000
  39      -0.00012    -0.00234     0.05527    -0.00644     0.00327     0.00000
  40       0.00000    -0.00000    -0.00000    -0.00000     0.00000    -0.00102
  41       0.00000    -0.00000     0.00000     0.00000    -0.00000    -0.00042
  42      -0.00000     0.00000     0.00000     0.00000     0.00000    -0.01460
  43      -0.00000    -0.00000     0.00000     0.00000     0.00000    -0.00873
  44      -0.00000    -0.00000    -0.00000     0.00000    -0.00000     0.01397
  45       0.00000     0.00000    -0.00000    -0.00000     0.00000    -0.00009
  46      -0.00401     0.01083    -0.00303    -0.01000     0.01648     0.00000
  47      -0.00442     0.00092     0.00066    -0.03516    -0.01671    -0.00000
  48       0.00046     0.00027    -0.01864     0.00355    -0.00360     0.00000
  49      -0.00000    -0.00000     0.00000     0.00000    -0.00000    -0.00011
  50      -0.00000     0.00000     0.00000     0.00000    -0.00000     0.00043
  51       0.00000     0.00000    -0.00000    -0.00000     0.00000    -0.00021
  52      -0.00230     0.00896     0.00691     0.02911    -0.27096    -0.00000
  53      -0.00197     0.00363     0.26064     0.08397     0.01248     0.00000
  54       0.00467    -0.00349     0.08950    -0.24190    -0.01679     0.00000
  55       0.00000     0.00000    -0.00000    -0.00000     0.00000     0.00196
  56      -0.00010     0.00559     0.02035    -0.00199    -0.03438    -0.00000
  57       0.00029     0.00078    -0.03961    -0.00198    -0.01735     0.00000
  58       0.00468    -0.00619    -0.00116    -0.03158     0.01700    -0.00000
  59       0.00000     0.00000    -0.00000    -0.00000     0.00000     0.00030

           19          20          21          22          23          24  
       ----------- ----------- ----------- ----------- ----------- -----------
   1       0.00010     0.00155    -0.00000    -0.00179    -0.00027     0.00000
   2       0.00000    -0.00000     0.00032    -0.00000    -0.00000     0.19388
   3       0.00000     0.00000     0.00080     0.00000     0.00000     0.58960
   4      -0.00000    -0.00000    -0.00045     0.00000     0.00000    -0.23391
   5       0.00040     0.00592    -0.00000    -0.00683    -0.00105    -0.00000
   6      -0.00000    -0.00000     0.00195    -0.00000    -0.00000     1.06219
   7      -0.00000     0.00000    -0.00009     0.00000     0.00000    -0.13165
   8       0.00000    -0.00000    -0.00028     0.00000     0.00000    -0.27616
   9       0.00029     0.00428    -0.00000    -0.00494    -0.00076     0.00000
  10       0.00000    -0.00000     0.70673     0.00000    -0.00000    -0.00037
  11       0.00014     0.00217     0.00000    -0.00250    -0.00038     0.00000
  12      -0.00000    -0.00000    -0.00008     0.00000     0.00000    -0.00048
  13       0.00000    -0.00000    -0.00002    -0.00000     0.00000    -0.00045
  14       0.00000    -0.00000     0.00007     0.00000     0.00000    -0.00012
  15       0.00000     0.00000     0.00740     0.00000     0.00000    -0.09235
  16      -0.00000     0.00000     0.00047     0.00000     0.00000    -0.00714
  17       0.00000     0.00000    -0.00082    -0.00000    -0.00000     0.02353
  18      -0.00065     0.00423     0.00000    -0.00238     0.00074     0.00000
  19       1.69575    -0.00115    -0.00000    -0.00070     0.00180     0.00000
  20      -0.00115     1.69632    -0.00000     0.00730    -0.00647     0.00000
  21      -0.00000    -0.00000     1.44287    -0.00000     0.00000     0.00568
  22      -0.00070     0.00730    -0.00000     1.69617    -0.00913     0.00000
  23       0.00180    -0.00647     0.00000    -0.00913     1.71074     0.00000
  24       0.00000     0.00000     0.00568     0.00000     0.00000     2.56062
  25      -0.00000     0.00000    -0.00042     0.00000     0.00000    -0.00702
  26       0.00000     0.00000     0.00066    -0.00000    -0.00000    -0.00177
  27      -0.00000    -0.00000     0.00000     0.00000    -0.00000     0.00045
  28       0.00000    -0.00000     0.00005     0.00000    -0.00000     0.00494
  29       0.00000     0.00000     0.00001     0.00000     0.00000     0.00039
  30      -0.24765     0.65320    -0.00000     0.00328    -0.00297    -0.00000
  31      -0.65984    -0.25163    -0.00000    -0.00085     0.00027     0.00000
  32      -0.05083     0.09826    -0.00000    -0.00058    -0.00012    -0.00000
  33      -0.00000    -0.00000     0.01607    -0.00000    -0.00000    -0.17428
  34      -0.00000     0.00000     0.00363    -0.00000    -0.00000    -0.04466
  35       0.00000    -0.00000     0.00014    -0.00000    -0.00000    -0.02573
  36       0.00099     0.01482     0.00000    -0.01709    -0.00262    -0.00000
  37       0.00000    -0.00000     0.00110     0.00000     0.00000    -0.12272
  38      -0.00000     0.00000     0.00141     0.00000     0.00000    -0.08091
  39       0.00000     0.00000     0.00769    -0.00000    -0.00000    -0.42702
  40      -0.00023     0.00297     0.00000     0.70335     0.06216    -0.00000
  41      -0.00082     0.00315    -0.00000     0.06962    -0.71055     0.00000
  42       0.01311    -0.00448     0.00000    -0.00009     0.00041     0.00000
  43      -0.00966    -0.01359    -0.00000    -0.00072     0.00067     0.00000
  44       0.00731    -0.01097     0.00000    -0.00114     0.00099    -0.00000
  45       0.00003     0.00038    -0.00000    -0.00044    -0.00007    -0.00000
  46       0.00000     0.00000    -0.00129     0.00000     0.00000    -0.25484
  47      -0.00000     0.00000    -0.00007    -0.00000    -0.00000     0.03507
  48       0.00000     0.00000    -0.00372    -0.00000    -0.00000    -0.53371
  49      -0.00032     0.00111    -0.00000     0.00027    -0.02043     0.00000
  50       0.00016    -0.00137     0.00000    -0.01809     0.00329     0.00000
  51       0.00006     0.00093    -0.00000    -0.00107    -0.00016    -0.00000
  52      -0.00000     0.00000    -0.00033     0.00000     0.00000     0.20833
  53       0.00000     0.00000    -0.00221    -0.00000    -0.00000     0.70897
  54       0.00000    -0.00000    -0.00062     0.00000     0.00000     0.22399
  55      -0.00058    -0.00867     0.00000     0.01000     0.00153    -0.00000
  56      -0.00000     0.00000    -0.00757    -0.00000    -0.00000    -0.12462
  57       0.00000     0.00000     0.01200    -0.00000    -0.00000     0.14866
  58      -0.00000     0.00000     0.00129     0.00000     0.00000     0.02123
  59      -0.00009    -0.00131     0.00000     0.00151     0.00023    -0.00000

           25          26          27          28          29          30  
       ----------- ----------- ----------- ----------- ----------- -----------
   1       0.00000    -0.00000    -0.00000     0.00000     0.00000     0.00085
   2      -0.62488    -0.08096    -0.00133    -0.00006    -0.00002     0.00000
   3       0.20869    -0.21905     0.00075     0.00082    -0.00003    -0.00000
   4       0.01217    -0.61880     0.00046    -0.00041    -0.00026     0.00000
   5      -0.00000     0.00000     0.00000    -0.00000    -0.00000     0.00203
   6      -0.09708     0.29047    -0.00034     0.00165     0.00014     0.00000
   7      -1.07996     0.13553    -0.00237    -0.00051    -0.00016    -0.00000
   8       0.15909     1.05723    -0.00088    -0.00028    -0.00022     0.00000
   9       0.00000    -0.00000    -0.00000    -0.00000     0.00000     0.00232
  10       0.00002    -0.00005     0.00001    -0.00011    -0.00001     0.00000
  11       0.00000    -0.00000    -0.00000    -0.00000     0.00000    -0.00423
  12      -0.00163     0.00093    -0.47967     0.48239     0.18443     0.00000
  13       0.00097     0.00406     0.31787     0.07528     0.63251     0.00000
  14      -0.00322     0.00073    -0.40270    -0.51061     0.26793     0.00000
  15       0.01694    -0.01582    -0.00147     0.00619     0.00035     0.00000
  16      -0.07458    -0.05030     0.00080     0.00024    -0.00144    -0.00000
  17       0.05935    -0.06905    -0.00703    -0.00160    -0.00362    -0.00000
  18      -0.00000     0.00000    -0.00000     0.00000    -0.00000    -0.10767
  19      -0.00000     0.00000    -0.00000     0.00000     0.00000    -0.24765
  20       0.00000     0.00000    -0.00000    -0.00000     0.00000     0.65320
  21      -0.00042     0.00066     0.00000     0.00005     0.00001    -0.00000
  22       0.00000    -0.00000     0.00000     0.00000     0.00000     0.00328
  23       0.00000    -0.00000    -0.00000    -0.00000     0.00000    -0.00297
  24      -0.00702    -0.00177     0.00045     0.00494     0.00039    -0.00000
  25       2.52990    -0.00979     0.00764     0.00134     0.00009    -0.00000
  26      -0.00979     2.55768    -0.00328     0.00057     0.00110    -0.00000
  27       0.00764    -0.00328     1.43055    -0.00364     0.00992     0.00000
  28       0.00134     0.00057    -0.00364     1.44201    -0.00044     0.00000
  29       0.00009     0.00110     0.00992    -0.00044     1.45619    -0.00000
  30      -0.00000    -0.00000     0.00000     0.00000    -0.00000     1.13174
  31       0.00000     0.00000    -0.00000     0.00000     0.00000     0.00108
  32       0.00000    -0.00000     0.00000    -0.00000     0.00000     0.00107
  33      -0.01163    -0.04868    -0.00214     0.01330     0.00002     0.00000
  34       0.11660     0.11519     0.00213     0.00442     0.00609    -0.00000
  35      -0.13345     0.11861     0.01425     0.00160     0.00916     0.00000
  36      -0.00000     0.00000     0.00000     0.00000    -0.00000     0.00635
  37      -0.19166     0.39049     0.00638     0.00180     0.00618     0.00000
  38      -0.37648    -0.21766     0.00028     0.00050    -0.00139    -0.00000
  39       0.13143    -0.06944    -0.00165     0.00653     0.00008     0.00000
  40      -0.00000     0.00000    -0.00000     0.00000    -0.00000     0.00891
  41       0.00000    -0.00000    -0.00000    -0.00000     0.00000     0.00968
  42       0.00000     0.00000    -0.00000     0.00000     0.00000     0.07389
  43       0.00000     0.00000    -0.00000     0.00000     0.00000     0.09105
  44       0.00000     0.00000    -0.00000    -0.00000     0.00000     0.17230
  45      -0.00000     0.00000     0.00000    -0.00000    -0.00000     0.00018
  46      -0.48420     0.21741    -0.00722    -0.00269     0.00153    -0.00000
  47      -0.24768    -0.52865    -0.00153    -0.00124    -0.00274    -0.00000
  48       0.21694    -0.13862     0.00284    -0.00260    -0.00085     0.00000
  49       0.00000    -0.00000    -0.00000     0.00000    -0.00000    -0.00350
  50       0.00000    -0.00000     0.00000     0.00000     0.00000     0.00482
  51      -0.00000     0.00000     0.00000     0.00000    -0.00000    -0.00914
  52       0.49693    -0.55244    -0.00354    -0.00086     0.00105    -0.00000
  53       0.03505     0.30378     0.00003    -0.00204    -0.00056    -0.00000
  54      -0.58491    -0.45294     0.00232     0.00031     0.00068     0.00000
  55      -0.00000     0.00000     0.00000    -0.00000     0.00000    -0.01554
  56      -0.04217     0.14515    -0.01195    -0.00742     0.00694    -0.00000
  57      -0.06430     0.10975    -0.01125     0.00886     0.00558    -0.00000
  58       0.17291     0.07350     0.02004     0.00727     0.00256    -0.00000
  59      -0.00000     0.00000     0.00000     0.00000    -0.00000     0.01084

           31          32          33          34          35          36  
       ----------- ----------- ----------- ----------- ----------- -----------
   1      -0.00038    -0.00008    -0.00000    -0.00000    -0.00000     0.02031
   2      -0.00000    -0.00000    -0.02011    -0.08281     0.05990     0.00000
   3       0.00000    -0.00000    -0.08350    -0.02589    -0.06127    -0.00000
   4      -0.00000     0.00000     0.06357    -0.05636    -0.06279    -0.00000
   5      -0.00090    -0.00020     0.00000     0.00000     0.00000     0.48028
   6      -0.00000     0.00000    -0.09504    -0.01195     0.01024     0.00000
   7       0.00000     0.00000     0.01343    -0.05094     0.07712    -0.00000
   8      -0.00000    -0.00000    -0.00346     0.07861     0.05531    -0.00000
   9      -0.00103    -0.00023    -0.00000    -0.00000    -0.00000     0.40165
  10       0.00000     0.00000     0.00303     0.00067     0.00004     0.00000
  11       0.00188     0.00041    -0.00000    -0.00000    -0.00000     0.29373
  12      -0.00000     0.00000     0.00204     0.00017     0.00075     0.00000
  13      -0.00000     0.00000    -0.00068     0.00472     0.00444     0.00000
  14      -0.00000    -0.00000    -0.00127    -0.00203     0.00168     0.00000
  15       0.00000    -0.00000     0.70102     0.18900    -0.07965    -0.00000
  16       0.00000     0.00000     0.19804    -0.67721     0.13058    -0.00000
  17       0.00000    -0.00000    -0.04188    -0.14490    -0.71188     0.00000
  18      -0.01353     0.70827    -0.00000    -0.00000     0.00000    -0.00334
  19      -0.65984    -0.05083    -0.00000    -0.00000     0.00000     0.00099
  20      -0.25163     0.09826    -0.00000     0.00000    -0.00000     0.01482
  21      -0.00000    -0.00000     0.01607     0.00363     0.00014     0.00000
  22      -0.00085    -0.00058    -0.00000    -0.00000    -0.00000    -0.01709
  23       0.00027    -0.00012    -0.00000    -0.00000    -0.00000    -0.00262
  24       0.00000    -0.00000    -0.17428    -0.04466    -0.02573    -0.00000
  25       0.00000     0.00000    -0.01163     0.11660    -0.13345    -0.00000
  26       0.00000    -0.00000    -0.04868     0.11519     0.11861     0.00000
  27      -0.00000     0.00000    -0.00214     0.00213     0.01425     0.00000
  28       0.00000    -0.00000     0.01330     0.00442     0.00160     0.00000
  29       0.00000     0.00000     0.00002     0.00609     0.00916    -0.00000
  30       0.00108     0.00107     0.00000    -0.00000     0.00000     0.00635
  31       1.13031    -0.00160    -0.00000     0.00000     0.00000    -0.00282
  32      -0.00160     1.16157     0.00000     0.00000    -0.00000    -0.00062
  33      -0.00000     0.00000     1.24876     0.00531    -0.00155     0.00000
  34       0.00000     0.00000     0.00531     1.23266     0.00307     0.00000
  35       0.00000    -0.00000    -0.00155     0.00307     1.24578     0.00000
  36      -0.00282    -0.00062     0.00000     0.00000     0.00000     0.88172
  37      -0.00000    -0.00000     0.02214     0.15243     0.39001    -0.00000
  38       0.00000     0.00000     0.15711    -0.36377     0.14029    -0.00000
  39       0.00000    -0.00000     0.39021     0.13794    -0.07636     0.00000
  40      -0.00247    -0.00176     0.00000     0.00000     0.00000    -0.00791
  41      -0.00103     0.00021    -0.00000    -0.00000    -0.00000     0.00047
  42       0.12274     0.16064    -0.00000     0.00000     0.00000    -0.00005
  43      -0.16405     0.09647    -0.00000     0.00000     0.00000    -0.00218
  44       0.03539    -0.11864     0.00000     0.00000    -0.00000    -0.00236
  45      -0.00008    -0.00002     0.00000     0.00000     0.00000    -2.37305
  46       0.00000    -0.00000    -0.00035     0.00418    -0.00033    -0.00000
  47       0.00000     0.00000    -0.00334     0.01380     0.00025     0.00000
  48       0.00000    -0.00000     0.00285    -0.00063    -0.00010     0.00000
  49       0.00024    -0.00023    -0.00000    -0.00000    -0.00000     0.00083
  50      -0.00124    -0.00077    -0.00000    -0.00000    -0.00000     0.00356
  51       0.00405     0.00089     0.00000     0.00000     0.00000     1.09345
  52       0.00000     0.00000     0.05031     0.05728     0.47253    -0.00000
  53       0.00000    -0.00000     0.47631    -0.03133    -0.04674     0.00000
  54      -0.00000    -0.00000     0.03108     0.46640    -0.06004    -0.00000
  55       0.00689     0.00152     0.00000     0.00000     0.00000    -1.22337
  56      -0.00000     0.00000     0.08521     0.07779     0.13659     0.00000
  57       0.00000    -0.00000    -0.16240    -0.01403     0.09269     0.00000
  58       0.00000     0.00000    -0.04827     0.13222    -0.08676    -0.00000
  59      -0.00481    -0.00106     0.00000     0.00000     0.00000     0.25815

           37          38          39          40          41          42  
       ----------- ----------- ----------- ----------- ----------- -----------
   1       0.00000     0.00000    -0.00000    -0.00106     0.00006    -0.00000
   2       0.00739     0.02669    -0.01509     0.00000    -0.00000     0.00000
   3      -0.01914    -0.00962    -0.01961    -0.00000     0.00000     0.00000
   4      -0.01964     0.01538     0.01357    -0.00000     0.00000    -0.00000
   5      -0.00000    -0.00000     0.00000    -0.00252     0.00015    -0.00001
   6      -0.00068     0.01700     0.07388     0.00000    -0.00000    -0.00000
   7      -0.04074    -0.05862     0.01472    -0.00000     0.00000     0.00000
   8      -0.06543     0.04306    -0.01023    -0.00000     0.00000    -0.00000
   9       0.00000     0.00000    -0.00000    -0.00289     0.00017     0.00002
  10       0.00112     0.00140     0.00786     0.00000     0.00000    -0.00000
  11       0.00000     0.00000    -0.00000     0.00527    -0.00031    -0.00007
  12      -0.00491    -0.00222     0.00657    -0.00000    -0.00000    -0.00000
  13       0.00319     0.00410    -0.00012     0.00000     0.00000    -0.00000
  14      -0.00699    -0.00581    -0.00234    -0.00000    -0.00000     0.00000
  15       0.00234     0.00485     0.05527    -0.00000     0.00000     0.00000
  16      -0.01519     0.06774    -0.00644    -0.00000     0.00000     0.00000
  17      -0.05827    -0.00646     0.00327     0.00000    -0.00000     0.00000
  18       0.00000    -0.00000     0.00000    -0.00102    -0.00042    -0.01460
  19       0.00000    -0.00000     0.00000    -0.00023    -0.00082     0.01311
  20      -0.00000     0.00000     0.00000     0.00297     0.00315    -0.00448
  21       0.00110     0.00141     0.00769     0.00000    -0.00000     0.00000
  22       0.00000     0.00000    -0.00000     0.70335     0.06962    -0.00009
  23       0.00000     0.00000    -0.00000     0.06216    -0.71055     0.00041
  24      -0.12272    -0.08091    -0.42702    -0.00000     0.00000     0.00000
  25      -0.19166    -0.37648     0.13143    -0.00000     0.00000     0.00000
  26       0.39049    -0.21766    -0.06944     0.00000    -0.00000     0.00000
  27       0.00638     0.00028    -0.00165    -0.00000    -0.00000    -0.00000
  28       0.00180     0.00050     0.00653     0.00000    -0.00000     0.00000
  29       0.00618    -0.00139     0.00008    -0.00000     0.00000     0.00000
  30       0.00000    -0.00000     0.00000     0.00891     0.00968     0.07389
  31      -0.00000     0.00000     0.00000    -0.00247    -0.00103     0.12274
  32      -0.00000     0.00000    -0.00000    -0.00176     0.00021     0.16064
  33       0.02214     0.15711     0.39021     0.00000    -0.00000    -0.00000
  34       0.15243    -0.36377     0.13794     0.00000    -0.00000     0.00000
  35       0.39001     0.14029    -0.07636     0.00000    -0.00000     0.00000
  36      -0.00000    -0.00000     0.00000    -0.00791     0.00047    -0.00005
  37       0.71162    -0.00241     0.00002    -0.00000     0.00000    -0.00000
  38      -0.00241     0.68837     0.00146    -0.00000     0.00000     0.00000
  39       0.00002     0.00146     0.71523     0.00000    -0.00000     0.00000
  40      -0.00000    -0.00000     0.00000     1.12954     0.01002     0.00018
  41       0.00000     0.00000    -0.00000     0.01002     1.15291     0.00130
  42      -0.00000     0.00000     0.00000     0.00018     0.00130     0.39149
  43      -0.00000     0.00000     0.00000     0.00241     0.00227     0.01256
  44      -0.00000     0.00000    -0.00000     0.00367     0.00341    -0.01187
  45      -0.00000    -0.00000     0.00000    -0.00023     0.00001     0.00000
  46       0.43046     0.33809     0.06058    -0.00000     0.00000     0.00000
  47      -0.32670     0.43403    -0.02240     0.00000    -0.00000     0.00000
  48      -0.06208    -0.01937     0.54108     0.00000    -0.00000     0.00000
[...]
  23       0.00002    -0.00000    -0.00000    -0.00000    -0.00014
  24       0.00003    -0.00000    -0.00000     0.00000    -0.00032
  25      -2.93876     0.00029    -0.00006     0.00033    -7.11404
  26       0.00024    -0.00000    -0.00000     0.00000    -0.00225
  27      -2.93856     0.00029    -0.00006     0.00033    -7.11598
  28      -1.51762    -0.00007     0.00010    -0.00061    -8.90801
  29       0.00006     0.00000     0.00000     0.00000     0.00011
  30       0.00014    -0.00000     0.00000    -0.00000     0.00025
  31      -1.51740    -0.00006     0.00010    -0.00061    -8.90761
  32       0.00101     0.00000     0.00000    -0.00000     0.00176
  33      -1.51653    -0.00007     0.00010    -0.00061    -8.90609
  34       2.02425    -0.00035     0.00012    -0.00073    -2.38830
  35      -0.00002    -0.00000    -0.00000    -0.00000    -0.00005
  36      -0.00005    -0.00000    -0.00000    -0.00000    -0.00010
  37       2.02417    -0.00035     0.00013    -0.00073    -2.38846
  38      -0.00037    -0.00000    -0.00000     0.00000    -0.00072
  39       2.02385    -0.00035     0.00012    -0.00073    -2.38908
  40      -0.00004    -0.80155   -13.55130    -1.95776     0.00000
  41      -0.00249    -5.69566     2.11341   -12.29582     0.00001
  42      -0.00056   -12.44668    -0.09458     5.75268     0.00005
  43      -0.00004    -0.80176   -13.55150    -1.95784     0.00000
  44      -0.00000    -0.00094    -0.00091    -0.00023    -0.00000
  45      -0.00004    -0.80257   -13.55232    -1.95785     0.00000
  46      -0.00249    -5.69614     2.11350   -12.29600     0.00001
  47      -0.00056   -12.44994    -0.09430     5.75194     0.00005
  48      -0.00249    -5.70290     2.11362   -12.29634     0.00001
  49      -0.00056   -12.45191    -0.09446     5.75313     0.00005
  50      -0.00002    -0.42928    -7.25431    -1.04803     0.00000
  51      -0.00130    -3.05036     1.13147    -6.58221     0.00002
  52      -0.00030    -6.66592    -0.05039     3.07957     0.00003
  53      -0.00002    -0.42914    -7.25404    -1.04792     0.00000
  54       0.00000     0.00061     0.00120     0.00030     0.00000
  55      -0.00002    -0.42861    -7.25297    -1.04791     0.00000
  56      -0.00130    -3.05005     1.13134    -6.58197     0.00002
  57      -0.00030    -6.66380    -0.05075     3.08054     0.00003
  58      -0.00130    -3.04565     1.13119    -6.58153     0.00002
  59      -0.00030    -6.66252    -0.05055     3.07898     0.00003
  int_init: cando_txs set to always be  F
                                NWChem TDDFT Module
                                -------------------


            General Information
            -------------------
           No. of orbitals :     118
            Alpha orbitals :      59
             Beta orbitals :      59
        Alpha frozen cores :       0
         Beta frozen cores :       0
     Alpha frozen virtuals :       0
      Beta frozen virtuals :       0
         Spin multiplicity :       2
    Number of AO functions :      59
        Use of symmetry is : off
      Symmetry adaption is : off
         Schwarz screening :  0.10D-07

              XC Information
              --------------
              Hartree-Fock (Exact) Exchange   1.00          
              LC-wPBE(h)Exchange Functional   1.00          
     Perdew 1991 LDA Correlation Functional   1.00 local    
    PerdewBurkeErnz. Correlation Functional   1.00 non-local
           Alpha           :  0.00
           Beta            :  1.00
           Gamma           :  0.33

             TDDFT Information
             -----------------
          Calculation type : TDDFT             
         Wavefunction type : Unrestricted
          No. of electrons :      17
           Alpha electrons :       9
            Beta electrons :       8
              No. of roots :       5
          Max subspacesize :    5000
            Max iterations :     100
               Target root :       1
           Target symmetry : none
      Symmetry restriction : off
                 Algorithm : Optimal
        Davidson threshold :  0.10D-03

            Memory Information
            ------------------
          Available GA space size is       52428793038 doubles
          Available MA space size is        4194415148 doubles
          Length of a trial vector is          450     408
          Algorithm : Incore multiple tensor contraction
          Estimated peak GA usage is          17753388 doubles
          Estimated peak MA usage is             18000 doubles

    5 smallest eigenvalue differences (eV) 
--------------------------------------------------------
  No. Spin  Occ  Vir  Irrep   E(Occ)    E(Vir)   E(Diff)
--------------------------------------------------------
    1    2    8    9 a        -0.445    -0.144     8.190
    2    2    7    9 a        -0.445    -0.144     8.190
    3    2    8   10 a        -0.445     0.086    14.449
    4    2    7   10 a        -0.445     0.086    14.449
    5    1    9   10 a        -0.460     0.083    14.772
--------------------------------------------------------

  Entering Davidson iterations
  Unrestricted

  Iter   NTrls   NConv    DeltaV     DeltaE      Time   
  ----  ------  ------  ---------  ---------  --------- 
    1      5       0     0.13E+00   0.10+100        2.4
    2     15       0     0.60E-01   0.11E-01        3.8
    3     25       0     0.27E-01   0.18E-02        3.8
    4     33       0     0.11E-01   0.73E-03        3.2
    5     41       1     0.44E-02   0.90E-04        3.2
    6     46       4     0.64E-03   0.99E-05        2.5
    7     48       4     0.25E-03   0.27E-06        1.7
    8     50       5     0.10E-03   0.28E-07        1.7
  ----  ------  ------  ---------  ---------  --------- 
  Convergence criterion met

  Ground state a        -460.001437217870 a.u.
  <S2> =   0.7538

  ----------------------------------------------------------------------------
  Root   1         a              0.000147238 a.u.                0.0040 eV 
  <S2> =   0.7551
  ----------------------------------------------------------------------------
     Transition Moments    X  0.00000   Y  0.00000   Z  0.00000
     Transition Moments   XX  0.68733  XY  2.55552  XZ  5.26287
     Transition Moments   YY  1.61322  YZ  1.23650  ZZ -2.30056
     Dipole Oscillator Strength                    0.0000000000
     Electric Quadrupole                           0.0000000000
     Magnetic Dipole                               0.0000000000
     Total Oscillator Strength                     0.0000000000

     Occ.    6 alpha a   ---  Virt.   15 alpha a    0.08540 X
     Occ.    6 alpha a   ---  Virt.   15 alpha a    0.08538 Y
     Occ.    6 alpha a   ---  Virt.   16 alpha a    0.15786 X
     Occ.    6 alpha a   ---  Virt.   16 alpha a    0.15781 Y
     Occ.    6 alpha a   ---  Virt.   24 alpha a    0.08722 X
     Occ.    6 alpha a   ---  Virt.   24 alpha a    0.08720 Y
     Occ.    6 alpha a   ---  Virt.   25 alpha a    0.16459 X
     Occ.    6 alpha a   ---  Virt.   25 alpha a    0.16456 Y
     Occ.    7 alpha a   ---  Virt.   12 alpha a   -0.07466 X
     Occ.    7 alpha a   ---  Virt.   12 alpha a   -0.07461 Y
     Occ.    7 alpha a   ---  Virt.   21 alpha a   -0.07584 X
     Occ.    7 alpha a   ---  Virt.   21 alpha a   -0.07581 Y
     Occ.    7 alpha a   ---  Virt.   29 alpha a    0.10014 X
     Occ.    7 alpha a   ---  Virt.   29 alpha a    0.10011 Y
     Occ.    7 alpha a   ---  Virt.   45 alpha a    0.06972 X
     Occ.    7 alpha a   ---  Virt.   45 alpha a    0.06971 Y
     Occ.    8 alpha a   ---  Virt.   11 alpha a   -0.08016 X
     Occ.    8 alpha a   ---  Virt.   11 alpha a   -0.08010 Y
     Occ.    8 alpha a   ---  Virt.   20 alpha a   -0.07841 X
     Occ.    8 alpha a   ---  Virt.   20 alpha a   -0.07837 Y
     Occ.    8 alpha a   ---  Virt.   28 alpha a   -0.07510 X
     Occ.    8 alpha a   ---  Virt.   28 alpha a   -0.07508 Y
     Occ.    8 alpha a   ---  Virt.   31 alpha a    0.06249 X
     Occ.    8 alpha a   ---  Virt.   31 alpha a    0.06247 Y
     Occ.    8 alpha a   ---  Virt.   32 alpha a    0.06403 X
     Occ.    8 alpha a   ---  Virt.   32 alpha a    0.06402 Y
     Occ.    9 alpha a   ---  Virt.   31 alpha a    0.06403 X
     Occ.    9 alpha a   ---  Virt.   31 alpha a    0.06402 Y
     Occ.    9 alpha a   ---  Virt.   32 alpha a   -0.06249 X
     Occ.    9 alpha a   ---  Virt.   32 alpha a   -0.06247 Y
     Occ.    6 beta  a   ---  Virt.   17 beta  a   -0.10774 X
     Occ.    6 beta  a   ---  Virt.   17 beta  a   -0.10765 Y
     Occ.    6 beta  a   ---  Virt.   26 beta  a   -0.07368 X
     Occ.    6 beta  a   ---  Virt.   26 beta  a   -0.07365 Y
     Occ.    8 beta  a   ---  Virt.    9 beta  a   -4.13848 X
     Occ.    8 beta  a   ---  Virt.    9 beta  a   -4.01655 Y
     Occ.    8 beta  a   ---  Virt.   11 beta  a    0.28434 X
     Occ.    8 beta  a   ---  Virt.   11 beta  a    0.27665 Y
     Occ.    8 beta  a   ---  Virt.   20 beta  a    0.15354 X
     Occ.    8 beta  a   ---  Virt.   20 beta  a    0.14970 Y
  ----------------------------------------------------------------------------
  Root   2         a              0.000149273 a.u.                0.0041 eV 
  <S2> =   0.7551
  ----------------------------------------------------------------------------
     Transition Moments    X  0.00000   Y -0.00000   Z -0.00000
     Transition Moments   XX  0.26580  XY  0.63020  XZ  2.19901
     Transition Moments   YY -4.46436  YZ -3.91783  ZZ  4.19857
     Dipole Oscillator Strength                    0.0000000000
     Electric Quadrupole                           0.0000000000
     Magnetic Dipole                               0.0000000000
     Total Oscillator Strength                     0.0000000000

     Occ.    6 alpha a   ---  Virt.   15 alpha a   -0.15678 X
     Occ.    6 alpha a   ---  Virt.   15 alpha a   -0.15673 Y
     Occ.    6 alpha a   ---  Virt.   16 alpha a    0.08482 X
     Occ.    6 alpha a   ---  Virt.   16 alpha a    0.08480 Y
     Occ.    6 alpha a   ---  Virt.   24 alpha a   -0.16347 X
     Occ.    6 alpha a   ---  Virt.   24 alpha a   -0.16343 Y
     Occ.    6 alpha a   ---  Virt.   25 alpha a    0.08662 X
     Occ.    6 alpha a   ---  Virt.   25 alpha a    0.08660 Y
     Occ.    7 alpha a   ---  Virt.   13 alpha a    0.07415 X
     Occ.    7 alpha a   ---  Virt.   13 alpha a    0.07410 Y
     Occ.    7 alpha a   ---  Virt.   22 alpha a    0.07532 X
     Occ.    7 alpha a   ---  Virt.   22 alpha a    0.07529 Y
     Occ.    7 alpha a   ---  Virt.   30 alpha a   -0.09945 X
     Occ.    7 alpha a   ---  Virt.   30 alpha a   -0.09943 Y
     Occ.    7 alpha a   ---  Virt.   46 alpha a   -0.06924 X
     Occ.    7 alpha a   ---  Virt.   46 alpha a   -0.06924 Y
     Occ.    8 alpha a   ---  Virt.   31 alpha a   -0.06359 X
     Occ.    8 alpha a   ---  Virt.   31 alpha a   -0.06358 Y
     Occ.    8 alpha a   ---  Virt.   32 alpha a    0.06206 X
     Occ.    8 alpha a   ---  Virt.   32 alpha a    0.06205 Y
     Occ.    9 alpha a   ---  Virt.   11 alpha a    0.07962 X
     Occ.    9 alpha a   ---  Virt.   11 alpha a    0.07956 Y
     Occ.    9 alpha a   ---  Virt.   20 alpha a    0.07787 X
     Occ.    9 alpha a   ---  Virt.   20 alpha a    0.07783 Y
     Occ.    9 alpha a   ---  Virt.   28 alpha a    0.07458 X
     Occ.    9 alpha a   ---  Virt.   28 alpha a    0.07457 Y
     Occ.    9 alpha a   ---  Virt.   31 alpha a    0.06206 X
     Occ.    9 alpha a   ---  Virt.   31 alpha a    0.06205 Y
     Occ.    9 alpha a   ---  Virt.   32 alpha a    0.06359 X
     Occ.    9 alpha a   ---  Virt.   32 alpha a    0.06358 Y
     Occ.    6 beta  a   ---  Virt.   16 beta  a    0.10700 X
     Occ.    6 beta  a   ---  Virt.   16 beta  a    0.10691 Y
     Occ.    6 beta  a   ---  Virt.   25 beta  a    0.07317 X
     Occ.    6 beta  a   ---  Virt.   25 beta  a    0.07314 Y
     Occ.    7 beta  a   ---  Virt.    9 beta  a    4.11102 X
     Occ.    7 beta  a   ---  Virt.    9 beta  a    3.98824 Y
     Occ.    7 beta  a   ---  Virt.   11 beta  a   -0.28245 X
     Occ.    7 beta  a   ---  Virt.   11 beta  a   -0.27471 Y
     Occ.    7 beta  a   ---  Virt.   20 beta  a   -0.15252 X
     Occ.    7 beta  a   ---  Virt.   20 beta  a   -0.14865 Y
  ----------------------------------------------------------------------------
  Root   3         a              0.332331400 a.u.                9.0432 eV 
  <S2> =   2.4596
  ----------------------------------------------------------------------------
     Transition Moments    X  0.27913   Y  0.09559   Z -0.06171
     Transition Moments   XX -0.00000  XY  0.00000  XZ -0.00000
     Transition Moments   YY  0.00000  YZ -0.00000  ZZ  0.00000
     Dipole Oscillator Strength                    0.0201307990
     Electric Quadrupole                           0.0000000000
     Magnetic Dipole                               0.0000000000
     Total Oscillator Strength                     0.0201307990

     Occ.    8 alpha a   ---  Virt.   10 alpha a    0.37560 X
     Occ.    8 alpha a   ---  Virt.   19 alpha a   -0.06891 X
     Occ.    8 beta  a   ---  Virt.   10 beta  a   -0.91391 X
     Occ.    8 beta  a   ---  Virt.   19 beta  a    0.12667 X
  ----------------------------------------------------------------------------
  Root   4         a              0.332331406 a.u.                9.0432 eV 
  <S2> =   2.4596
  ----------------------------------------------------------------------------
     Transition Moments    X  0.11241   Y -0.25701   Z  0.11036
     Transition Moments   XX  0.00001  XY  0.00000  XZ -0.00000
     Transition Moments   YY  0.00001  YZ -0.00000  ZZ  0.00001
     Dipole Oscillator Strength                    0.0201322288
     Electric Quadrupole                           0.0000000000
     Magnetic Dipole                               0.0000000000
     Total Oscillator Strength                     0.0201322288

     Occ.    9 alpha a   ---  Virt.   10 alpha a   -0.37560 X
     Occ.    9 alpha a   ---  Virt.   19 alpha a    0.06891 X
     Occ.    7 beta  a   ---  Virt.   10 beta  a    0.91391 X
     Occ.    7 beta  a   ---  Virt.   19 beta  a   -0.12666 X
  ----------------------------------------------------------------------------
  Root   5         a              0.347487179 a.u.                9.4556 eV 
  <S2> =   1.0469
  ----------------------------------------------------------------------------
     Transition Moments    X  0.29556   Y -0.57845   Z  0.24565
     Transition Moments   XX -0.00001  XY  0.00000  XZ  0.00000
     Transition Moments   YY -0.00002  YZ  0.00000  ZZ -0.00001
     Dipole Oscillator Strength                    0.1117281386
     Electric Quadrupole                           0.0000000000
     Magnetic Dipole                               0.0000000000
     Total Oscillator Strength                     0.1117281386

     Occ.    9 alpha a   ---  Virt.   10 alpha a    0.91615 X
     Occ.    9 alpha a   ---  Virt.   19 alpha a   -0.11288 X
     Occ.    7 beta  a   ---  Virt.   10 beta  a    0.38155 X

              Target root =      1
          Target symmetry = none
      Ground state energy =   -460.001437217870
        Excitation energy =      0.000147237813
     Excited state energy =   -460.001289980057

  stored tddft:energy   -460.00128998005675     

 Task  times  cpu:       21.2s     wall:       25.3s


                                NWChem Input Module
                                -------------------


 Summary of allocated global arrays
-----------------------------------
  No active global arrays


MA_summarize_allocated_blocks: starting scan ...
heap block 'gridpts', handle 80, address 0x1343fe28:
	type of elements:		double precision
	number of elements:		1048463508
	address of client space:	0x1343fe80
	index for client space:		12245799
	total number of bytes:		8387708160
MA_summarize_allocated_blocks: scan completed: 1 heap block, 0 stack blocks
MA usage statistics:

	allocation statistics:
					      heap	     stack
					      ----	     -----
	current number of blocks	         1	         0
	maximum number of blocks	        18	        54
	current total bytes		8387708160	         0
	maximum total bytes		8388304672	  22513464
	maximum total K-bytes		   8388305	     22514
	maximum total M-bytes		      8389	        23


                                     CITATION
                                     --------
                Please cite the following reference when publishing
                           results obtained with NWChem:

          E. Apra, E. J. Bylaska, W. A. de Jong, N. Govind, K. Kowalski,
       T. P. Straatsma, M. Valiev, H. J. J. van Dam, Y. Alexeev, J. Anchell,
       V. Anisimov, F. W. Aquino, R. Atta-Fynn, J. Autschbach, N. P. Bauman,
     J. C. Becca, D. E. Bernholdt, K. Bhaskaran-Nair, S. Bogatko, P. Borowski,
         J. Boschen, J. Brabec, A. Bruner, E. Cauet, Y. Chen, G. N. Chuev,
      C. J. Cramer, J. Daily, M. J. O. Deegan, T. H. Dunning Jr., M. Dupuis,
   K. G. Dyall, G. I. Fann, S. A. Fischer, A. Fonari, H. Fruchtl, L. Gagliardi,
      J. Garza, N. Gawande, S. Ghosh, K. Glaesemann, A. W. Gotz, J. Hammond,
       V. Helms, E. D. Hermes, K. Hirao, S. Hirata, M. Jacquelin, L. Jensen,
   B. G. Johnson, H. Jonsson, R. A. Kendall, M. Klemm, R. Kobayashi, V. Konkov,
      S. Krishnamoorthy, M. Krishnan, Z. Lin, R. D. Lins, R. J. Littlefield,
      A. J. Logsdail, K. Lopata, W. Ma, A. V. Marenich, J. Martin del Campo,
   D. Mejia-Rodriguez, J. E. Moore, J. M. Mullin, T. Nakajima, D. R. Nascimento,
    J. A. Nichols, P. J. Nichols, J. Nieplocha, A. Otero-de-la-Roza, B. Palmer,
    A. Panyala, T. Pirojsirikul, B. Peng, R. Peverati, J. Pittner, L. Pollack,
   R. M. Richard, P. Sadayappan, G. C. Schatz, W. A. Shelton, D. W. Silverstein,
   D. M. A. Smith, T. A. Soares, D. Song, M. Swart, H. L. Taylor, G. S. Thomas,
            V. Tipparaju, D. G. Truhlar, K. Tsemekhman, T. Van Voorhis,
      A. Vazquez-Mayagoitia, P. Verma, O. Villa, A. Vishnu, K. D. Vogiatzis,
        D. Wang, J. H. Weare, M. J. Williamson, T. L. Windus, K. Wolinski,
        A. T. Wong, Q. Wu, C. Yang, Q. Yu, M. Zacharias, Z. Zhang, Y. Zhao,
                                and R. J. Harrison
                        "NWChem: Past, present, and future
                         J. Chem. Phys. 152, 184102 (2020)
                               doi:10.1063/5.0004997

                                      AUTHORS
                                      -------
  E. Apra, E. J. Bylaska, N. Govind, K. Kowalski, M. Valiev, D. Mejia-Rodriguez,
       A. Kunitsa, N. P. Bauman, A. Panyala, W. A. de Jong, T. P. Straatsma,
   H. J. J. van Dam, D. Wang, T. L. Windus, J. Hammond, J. Autschbach, A. Woods,
    K. Bhaskaran-Nair, J. Brabec, K. Lopata, S. A. Fischer, S. Krishnamoorthy,
     M. Jacquelin, W. Ma, M. Klemm, O. Villa, Y. Chen, V. Anisimov, F. Aquino,
     S. Hirata, M. T. Hackler, E. Hermes, L. Jensen, J. E. Moore, J. C. Becca,
      V. Konjkov, T. Risthaus, M. Malagoli, A. Marenich, A. Otero-de-la-Roza,
        J. Mullin, P. Nichols, R. Peverati, J. Pittner, Y. Zhao, P.-D. Fan,
        A. Fonari, M. J. Williamson, R. J. Harrison, J. R. Rehr, M. Dupuis,
     D. Silverstein, D. M. A. Smith, J. Nieplocha, V. Tipparaju, M. Krishnan,
     B. E. Van Kuiken, A. Vazquez-Mayagoitia, M. Swart, Q. Wu, T. Van Voorhis,
     A. A. Auer, M. Nooijen, L. D. Crosby, E. Brown, G. Cisneros, G. I. Fann,
   H. Fruchtl, J. Garza, K. Hirao, R. A. Kendall, J. A. Nichols, K. Tsemekhman,
    K. Wolinski, J. Anchell, D. E. Bernholdt, P. Borowski, T. Clark, D. Clerc,
   H. Dachsel, M. J. O. Deegan, K. Dyall, D. Elwood, E. Glendening, M. Gutowski,
   A. C. Hess, J. Jaffe, B. G. Johnson, J. Ju, R. Kobayashi, R. Kutteh, Z. Lin,
   R. Littlefield, X. Long, B. Meng, T. Nakajima, S. Niu, L. Pollack, M. Rosing,
   K. Glaesemann, G. Sandrone, M. Stave, H. Taylor, G. Thomas, J. H. van Lenthe,
                               A. T. Wong, Z. Zhang.

 Total times  cpu:       21.2s     wall:       25.6s
