 argument  1 = /home/aditisingh4812/nw_chem/nwchem-run/nwchem-run/tddft/open/open_atom/geom-MOL/f.nw
                                         
                                         


             Northwest Computational Chemistry Package (NWChem) 7.2.3
             --------------------------------------------------------


                    Environmental Molecular Sciences Laboratory
                       Pacific Northwest National Laboratory
                                Richland, WA 99352

                              Copyright (c) 1994-2022
                       Pacific Northwest National Laboratory
                            Battelle Memorial Institute

             NWChem is an open-source computational chemistry package
                        distributed under the terms of the
                      Educational Community License (ECL) 2.0
             A copy of the license is included with this distribution
                              in the LICENSE.TXT file

                                  ACKNOWLEDGMENT
                                  --------------

            This software and its documentation were developed at the
            EMSL at Pacific Northwest National Laboratory, a multiprogram
            national laboratory, operated for the U.S. Department of Energy
            by Battelle under Contract Number DE-AC05-76RL01830. Support
            for this work was provided by the Department of Energy Office
            of Biological and Environmental Research, Office of Basic
            Energy Sciences, and the Office of Advanced Scientific Computing.


           Job information
           ---------------

    hostname        = p17
    program         = /home/aditisingh4812/nw_chem/nwchem-7.2.3-release.revision-d690e065-srconly.2024-08-27/nwchem-7.2.3/bin/LINUX64/nwchem
    date            = Thu May  8 11:50:00 2025

    compiled        = Mon_Apr_07_18:51:54_2025
    source          = /home/aditisingh4812/nw_chem/nwchem-7.2.3-release.revision-d690e065-srconly.2024-08-27/nwchem-7.2.3
    nwchem branch   = 7.2.3
    nwchem revision = d690e065
    ga revision     = 5.8.0
    use scalapack   = F
    input           = /home/aditisingh4812/nw_chem/nwchem-run/nwchem-run/tddft/open/open_atom/geom-MOL/f.nw
    prefix          = f.
    data base       = ./f.db
    status          = startup
    nproc           =        8
    time left       =     -1s



           Memory information
           ------------------

    heap     = 2621439998 doubles =  20000.0 Mbytes
    stack    = 2621439995 doubles =  20000.0 Mbytes
    global   = 6553600000 doubles =  50000.0 Mbytes (distinct from heap & stack)
    total    = ********** doubles =  90000.0 Mbytes
    verify   = yes
    hardfail = no 


           Directory information
           ---------------------

  0 permanent = .
  0 scratch   = .




                                NWChem Input Module
                                -------------------



 Scaling coordinates for geometry "geometry" by  1.889725989
 (inverse scale =  0.529177249)



                             Geometry "geometry" -> ""
                             -------------------------

 Output coordinates in angstroms (scale by  1.889725989 to convert to a.u.)

  No.       Tag          Charge          X              Y              Z
 ---- ---------------- ---------- -------------- -------------- --------------
    1 F                    9.0000     0.00000000     0.00000000     0.00000000

      Atomic Mass 
      ----------- 

      F                 18.998400


 Effective nuclear repulsion energy (a.u.)       0.0000000000

            Nuclear Dipole moment (a.u.) 
            ----------------------------
        X                 Y               Z
 ---------------- ---------------- ----------------
     0.0000000000     0.0000000000     0.0000000000


            XYZ format geometry
            -------------------
     1
 geometry
 F                     0.00000000     0.00000000     0.00000000



 Summary of "ao basis" -> "" (cartesian)
 ------------------------------------------------------------------------------
       Tag                 Description            Shells   Functions and Types
 ---------------- ------------------------------  ------  ---------------------
 *                        aug-cc-pVTZ                 on all atoms 


  pbe96 is a nonlocal functional; adding pw91lda local functional. 

                                 NWChem DFT Module
                                 -----------------


                      Basis "ao basis" -> "ao basis" (cartesian)
                      -----
  F (Fluorine)
  ------------
            Exponent  Coefficients 
       -------------- ---------------------------------------------------------
  1 S  1.95000000E+04  0.000507
  1 S  2.92300000E+03  0.003923
  1 S  6.64500000E+02  0.020200
  1 S  1.87500000E+02  0.079010
  1 S  6.06200000E+01  0.230439
  1 S  2.14200000E+01  0.432872
  1 S  7.95000000E+00  0.349964
  1 S  8.81500000E-01 -0.007892

  2 S  1.95000000E+04 -0.000117
  2 S  2.92300000E+03 -0.000912
  2 S  6.64500000E+02 -0.004717
  2 S  1.87500000E+02 -0.019086
  2 S  6.06200000E+01 -0.059655
  2 S  2.14200000E+01 -0.140010
  2 S  7.95000000E+00 -0.176782
  2 S  8.81500000E-01  0.605043

  3 S  2.25700000E+00  1.000000

  4 S  3.04100000E-01  1.000000

  5 S  9.15800000E-02  1.000000

  6 P  4.38800000E+01  0.016665
  6 P  9.92600000E+00  0.104472
  6 P  2.93000000E+00  0.317260

  7 P  9.13200000E-01  1.000000

  8 P  2.67200000E-01  1.000000

  9 P  7.36100000E-02  1.000000

 10 D  3.10700000E+00  1.000000

 11 D  8.55000000E-01  1.000000

 12 D  2.92000000E-01  1.000000

 13 F  1.91700000E+00  1.000000

 14 F  7.24000000E-01  1.000000



 Summary of "ao basis" -> "ao basis" (cartesian)
 ------------------------------------------------------------------------------
       Tag                 Description            Shells   Functions and Types
 ---------------- ------------------------------  ------  ---------------------
 F                        aug-cc-pVTZ               14       55   5s4p3d2f




 Summary of "ao basis" -> "ao basis" (cartesian)
 ------------------------------------------------------------------------------
       Tag                 Description            Shells   Functions and Types
 ---------------- ------------------------------  ------  ---------------------
 F                        aug-cc-pVTZ               14       55   5s4p3d2f




                         Geometry "geometry" -> "geometry"
                         ---------------------------------

 Output coordinates in angstroms (scale by  1.889725989 to convert to a.u.)

  No.       Tag          Charge          X              Y              Z
 ---- ---------------- ---------- -------------- -------------- --------------
    1 F                    9.0000     0.00000000     0.00000000     0.00000000

      Atomic Mass 
      ----------- 

      F                 18.998400


 Effective nuclear repulsion energy (a.u.)       0.0000000000

            Nuclear Dipole moment (a.u.) 
            ----------------------------
        X                 Y               Z
 ---------------- ---------------- ----------------
     0.0000000000     0.0000000000     0.0000000000


                      Basis "ao basis" -> "ao basis" (cartesian)
                      -----
  F (Fluorine)
  ------------
            Exponent  Coefficients 
       -------------- ---------------------------------------------------------
  1 S  1.95000000E+04  0.610821
  1 S  2.92300000E+03  1.138598
  1 S  6.64500000E+02  1.930203
  1 S  1.87500000E+02  2.922896
  1 S  6.06200000E+01  3.655092
  1 S  2.14200000E+01  3.146693
  1 S  7.95000000E+00  1.209704
  1 S  8.81500000E-01 -0.005242

  2 S  1.95000000E+04 -0.234735
  2 S  2.92300000E+03 -0.440790
  2 S  6.64500000E+02 -0.750590
  2 S  1.87500000E+02 -1.175794
  2 S  6.06200000E+01 -1.575703
  2 S  2.14200000E+01 -1.694881
  2 S  7.95000000E+00 -1.017604
  2 S  8.81500000E-01  0.669219

  3 S  2.25700000E+00  1.312377

  4 S  3.04100000E-01  0.291859

  5 S  9.15800000E-02  0.118648

  6 P  4.38800000E+01  6.745828
  6 P  9.92600000E+00  6.597273
  6 P  2.93000000E+00  4.359097

  7 P  9.13200000E-01  1.272470

  8 P  2.67200000E-01  0.273833

  9 P  7.36100000E-02  0.054653

 10 D  3.10700000E+00 11.967589

 11 D  8.55000000E-01  1.251267

 12 D  2.92000000E-01  0.190910

 13 F  1.91700000E+00  6.365818

 14 F  7.24000000E-01  0.711814



    Basis function labels
    ---------------------
       No.  Atm El Type
       ---  --- -- ----
        1    1 F  s          
        2    1 F  s          
        3    1 F  s          
        4    1 F  s          
        5    1 F  s          
        6    1 F  px         
        7    1 F  py         
        8    1 F  pz         
        9    1 F  px         
       10    1 F  py         
       11    1 F  pz         
       12    1 F  px         
       13    1 F  py         
       14    1 F  pz         
       15    1 F  px         
       16    1 F  py         
       17    1 F  pz         
       18    1 F  dxx        
       19    1 F  dxy        
       20    1 F  dxz        
       21    1 F  dyy        
       22    1 F  dyz        
       23    1 F  dzz        
       24    1 F  dxx        
       25    1 F  dxy        
       26    1 F  dxz        
       27    1 F  dyy        
       28    1 F  dyz        
       29    1 F  dzz        
       30    1 F  dxx        
       31    1 F  dxy        
       32    1 F  dxz        
       33    1 F  dyy        
       34    1 F  dyz        
       35    1 F  dzz        
       36    1 F  fxxx       
       37    1 F  fxxy       
       38    1 F  fxxz       
       39    1 F  fxyy       
       40    1 F  fxyz       
       41    1 F  fxzz       
       42    1 F  fyyy       
       43    1 F  fyyz       
       44    1 F  fyzz       
       45    1 F  fzzz       
       46    1 F  fxxx       
       47    1 F  fxxy       
       48    1 F  fxxz       
       49    1 F  fxyy       
       50    1 F  fxyz       
       51    1 F  fxzz       
       52    1 F  fyyy       
       53    1 F  fyyz       
       54    1 F  fyzz       
       55    1 F  fzzz       
  int_init: cando_txs set to always be  F

 Schwarz integral screening summary 
 ---------------------------------- 

        No. of atom pairs =       1
       No. of shell pairs =     105

 Atomic screening 

   value      no.     value      no.     value      no.     value      no.   
  -------- ------    -------- ------    -------- ------    -------- ------   
  0.00D+00      0    1.00D-13      0    1.00D-12      0    1.00D-11      0
  1.00D-10      0    1.00D-09      0    1.00D-08      0    1.00D-07      0
  1.00D-06      0    1.00D-05      0    1.00D-04      0    1.00D-03      0
  1.00D-02      0    1.00D-01      0    1.00D+00      1    1.00D+01      0


 Shell screening 

   value      no.     value      no.     value      no.     value      no.   
  -------- ------    -------- ------    -------- ------    -------- ------   
  0.00D+00      0    1.00D-13      0    1.00D-12      0    1.00D-11      0
  1.00D-10      0    1.00D-09      0    1.00D-08      0    1.00D-07      0
  1.00D-06      0    1.00D-05      0    1.00D-04      0    1.00D-03      0
  1.00D-02      5    1.00D-01     27    1.00D+00     73    1.00D+01      0


  Caching 1-el integrals 
  atom                     1  - neighbor  & S                     1   10.000000000000000       exp AB    7.3610000000000050E-002   7.3610000000000050E-002
 zmins =     0.073610000    0.073610000 lprod =   2 range =        12.34 acc   0.10D-06
 sh     0.000000000
  Center:                     1  Radial Pts. & Wghts. 
    1        0.000010504           3.4766734E-15
    2        0.000084031           8.9006320E-13
    3        0.000283613           2.2813768E-11
    4        0.000672304           2.2792750E-10
    5        0.001313205           1.3590170E-09
    6        0.002269507           5.8464980E-09
    7        0.003604533           2.0080686E-08
    8        0.005381800           5.8495804E-08
    9        0.007665084           1.5027002E-07
   10        0.010518508           3.4961609E-07
   11        0.014006627           7.5082474E-07
   12        0.018194536           1.5094346E-06
   13        0.023147983           2.8711447E-06
   14        0.028933501           5.2103690E-06
   15        0.035618551           9.0806659E-06
   16        0.043271673           1.5279676E-05
   17        0.051962668           2.4931679E-05
   18        0.061762779           3.9591466E-05
   19        0.072744902           6.1373927E-05
   20        0.084983811           9.3114612E-05
   21        0.098556409           1.3856760E-04
   22        0.113542000           2.0264830E-04
   23        0.130022585           2.9173037E-04
   24        0.148083195           4.1400807E-04
   25        0.167812251           5.7993757E-04
   26        0.189301962           8.0277410E-04
   27        0.212648771           1.0992254E-03
   28        0.237953841           1.4902470E-03
   29        0.265323600           2.0020103E-03
   30        0.294870348           2.6670831E-03
   31        0.326712937           3.5258707E-03
   32        0.360977528           4.6283791E-03
   33        0.397798452           6.0363761E-03
   34        0.437319172           7.8260495E-03
   35        0.479693379           1.0091283E-02
   36        0.525086240           1.2947710E-02
   37        0.573675820           1.6537748E-02
   38        0.625654708           2.1036871E-02
   39        0.681231901           2.6661467E-02
   40        0.740634973           3.3678723E-02
   41        0.804112597           4.2419121E-02
   42        0.871937496           5.3292334E-02
   43        0.944409902           6.6807549E-02
   44        1.021861644           8.3599649E-02
   45        1.104661003           1.0446314E-01
   46        1.193218509           1.3039649E-01
   47        1.287993932           1.6266055E-01
   48        1.389504740           2.0285611E-01
   49        1.498336449           2.5302813E-01
   50        1.615155370           3.1580693E-01
   51        1.740724463           3.9460208E-01
   52        1.875923263           4.9387170E-01
   53        2.021773189           6.1950200E-01
   54        2.179470090           7.7935051E-01
   55        2.350426670           9.8403697E-01
   56        2.536328609           1.2481172E+00
   57        2.739210083           1.5918635E+00
   58        2.961557306           2.0440314E+00
   59        3.206453599           2.6462813E+00
   60        3.477787726           3.4604742E+00
   61        3.780561807           4.5811681E+00
   62        4.121362002           6.1579832E+00
   63        4.509107599           8.4377919E+00
   64        4.956302910           1.1849575E+01
   65        5.481260766           1.7189319E+01
   66        6.112371596           2.6066650E+01
   67        6.897197004           4.2144108E+01
   68        7.924898069           7.5330125E+01
   69        9.395644098           1.6121946E+02
   70       11.948158570           5.2909579E+02
     irreducible set of Lebedev Angular points ;
  0.009523809523810  1.000000000000000  0.000000000000000  0.000000000000000
  0.032142857142857  0.577350269189626  0.577350269189626  0.577350269189626
  0.028571428571429  0.459700843380983  0.000000000000000  0.888073833977115
   total no. of   reducible points:  38; test:  1.00000000
  0.012698412698413  1.000000000000000  0.000000000000000  0.000000000000000
  0.022574955908289  0.707106781186547  0.707106781186547  0.000000000000000
  0.021093750000000  0.577350269189626  0.577350269189626  0.577350269189626
  0.020173335537919  0.301511344577764  0.301511344577764  0.904534033733291
   total no. of   reducible points:  50; test:  1.00000000
  0.000513067179734  1.000000000000000  0.000000000000000  0.000000000000000
  0.016604069565742  0.707106781186547  0.707106781186547  0.000000000000000
 -0.029586038961039  0.577350269189626  0.577350269189626  0.577350269189626
  0.026576207082159  0.480384461415261  0.480384461415261  0.733799385705343
  0.016522170993716  0.320772648980776  0.000000000000000  0.947156221362588
   total no. of   reducible points:  74; test:  1.00000000
  0.011544011544012  1.000000000000000  0.000000000000000  0.000000000000000
  0.011943909085856  0.577350269189626  0.577350269189626  0.577350269189626
  0.011110555710603  0.369602846454150  0.369602846454150  0.852518311701268
  0.011876501294537  0.694354006602666  0.694354006602666  0.189063552885395
  0.011812303746904  0.374243039090341  0.000000000000000  0.927330657151172
   total no. of   reducible points:  86; test:  1.00000000
  0.003828270494937  1.000000000000000  0.000000000000000  0.000000000000000
  0.009793737512488  0.577350269189626  0.577350269189626  0.577350269189626
  0.008211737283191  0.185115635344736  0.185115635344736  0.965124035086594
  0.009942814891178  0.690421048382292  0.690421048382292  0.215957291845848
  0.009595471336071  0.395689473055942  0.395689473055942  0.828769981252592
  0.009694996361663  0.478369028812150  0.000000000000000  0.878158910604066
   total no. of   reducible points: 110; test:  1.00000000
  0.000599631368862  1.000000000000000  0.000000000000000  0.000000000000000
  0.007372999718621  0.707106781186547  0.707106781186547  0.000000000000000
  0.007210515360144  0.577350269189626  0.577350269189626  0.577350269189626
  0.007116355493118  0.676441040011426  0.676441040011426  0.291298882209527
  0.006753829486314  0.417496122796545  0.417496122796545  0.807089818359583
  0.007574394159054  0.157467667203908  0.157467667203908  0.974888643677173
  0.006991087353303  0.140355381171318  0.449332832326956  0.882270011260323
   total no. of   reducible points: 146; test:  1.00000000
  0.005544842902037  1.000000000000000  0.000000000000000  0.000000000000000
  0.006071332770671  0.707106781186547  0.707106781186547  0.000000000000000
  0.006383674773515  0.577350269189626  0.577350269189626  0.577350269189626
  0.005183387587748  0.255125262111413  0.255125262111413  0.932642590312691
  0.006317929009814  0.674360146036277  0.674360146036277  0.300793595137701
  0.006201670006589  0.431891069671941  0.431891069671941  0.791795559393492
  0.005477143385137  0.261393136033599  0.000000000000000  0.965232421976448
  0.005968383987681  0.499045316179604  0.144663074432512  0.854415804684659
   total no. of   reducible points: 170; test:  1.00000000
  0.001782340447245  1.000000000000000  0.000000000000000  0.000000000000000
  0.005716905949977  0.707106781186547  0.707106781186547  0.000000000000000
  0.005573383178849  0.577350269189626  0.577350269189626  0.577350269189626
  0.005608704082588  0.671297344269523  0.671297344269523  0.314196994182586
  0.005158237711805  0.289246562757544  0.289246562757544  0.912509096867474
  0.005518771467274  0.444693317871744  0.444693317871744  0.777493219314767
  0.004106777028169  0.129933544765007  0.129933544765007  0.982972302707253
  0.005051846064615  0.345770219761128  0.000000000000000  0.938319218137592
  0.005530248916233  0.159041710538353  0.836036015482459  0.525118572443642
   total no. of   reducible points: 194; test:  1.00000000
 -0.055226399197273  1.000000000000000  0.000000000000000  0.000000000000000
  0.004450274607445  0.577350269189626  0.577350269189626  0.577350269189626
  0.004496841067921  0.449204468739761  0.449204468739761  0.772289253148364
  0.005049153450479  0.252041949021020  0.252041949021020  0.934317778845812
  0.003976408018052  0.698190665844724  0.698190665844724  0.158302205463478
  0.004401400650381  0.658740524346096  0.658740524346096  0.363485684956727
  0.017245443505444  0.040385440500977  0.040385440500977  0.998367683967727
  0.004231083095357  0.582384230971558  0.000000000000000  0.812913653173365
  0.005198069864064  0.354587739051869  0.000000000000000  0.935022745880593
  0.004695720972569  0.227218180899819  0.486466153588665  0.843636521068894
   total no. of   reducible points: 230; test:  1.00000000
 -0.001313769127327  1.000000000000000  0.000000000000000  0.000000000000000
 -0.002522728704859  0.707106781186547  0.707106781186547  0.000000000000000
  0.004186853881701  0.577350269189626  0.577350269189626  0.577350269189626
  0.005315167977811  0.703937339158548  0.703937339158548  0.094575076403713
  0.004047142377086  0.101252624857241  0.101252624857241  0.989694807462905
  0.004112482394407  0.464744872642054  0.464744872642054  0.753673939250816
  0.003595584899759  0.327742065497163  0.327742065497163  0.886098344997499
  0.004256131351428  0.662033866369997  0.662033866369997  0.351315128564633
  0.004229582700647  0.850650808352040  0.000000000000000  0.525731112119134
  0.004080914225781  0.323348454269290  0.115311201100970  0.939227929749916
  0.004071467593831  0.231479015871260  0.524493924092236  0.819343388819120
   total no. of   reducible points: 266; test:  1.00000000
  0.000854591172513  1.000000000000000  0.000000000000000  0.000000000000000
  0.003599119285026  0.577350269189626  0.577350269189626  0.577350269189626
  0.003449788424306  0.351564034557011  0.351564034557011  0.867643624544083
  0.003604822601420  0.656632941021961  0.656632941021961  0.371034178384821
  0.003576729661743  0.472905413258100  0.472905413258100  0.743452042987556
  0.002352101413689  0.096183085226148  0.096183085226148  0.990705621379408
  0.003108953122414  0.221964523629418  0.221964523629418  0.949454317226443
  0.003650045807677  0.701176641608955  0.701176641608955  0.129238672710514
  0.002982344963172  0.264415288706066  0.000000000000000  0.964408914879206
  0.003600820932216  0.571895589187896  0.000000000000000  0.820326419827759
  0.003571540554273  0.251003475177047  0.800072749407395  0.544867737258077
  0.003392312205006  0.123354853258333  0.412772408316853  0.902442529533000
   total no. of   reducible points: 302; test:  1.00000000
  0.003006796749454  1.000000000000000  0.000000000000000  0.000000000000000
  0.003050627745651  0.577350269189626  0.577350269189626  0.577350269189626
  0.001621104600289  0.706896546391232  0.706896546391232  0.024383301669356
  0.003005701484902  0.479468262571203  0.479468262571203  0.734996850587746
  0.002990992529654  0.192753315487802  0.192753315487802  0.962129055136014
  0.002982170644108  0.693035796132712  0.693035796132712  0.198501311223365
  0.002721564237311  0.360830211552009  0.360830211552009  0.860001812127547
  0.003033513795811  0.649848616149617  0.649848616149617  0.394199888605839
  0.003007949555219  0.193294501323034  0.000000000000000  0.981140782843257
  0.002881964603055  0.380049491989930  0.000000000000000  0.924966152698679
  0.002958357626536  0.289955882549957  0.793453785658232  0.535123047718276
  0.003036020026407  0.096841214551040  0.828080150668686  0.552182074349399
  0.002832187403926  0.183343464704166  0.907465826530513  0.378009189874487
   total no. of   reducible points: 350; test:  1.00000000
  0.000526589796822  1.000000000000000  0.000000000000000  0.000000000000000
  0.002548219972003  0.707106781186547  0.707106781186547  0.000000000000000
  0.002512317418927  0.577350269189626  0.577350269189626  0.577350269189626
  0.002530403801186  0.690934630750911  0.690934630750911  0.212646824707552
  0.002014279020919  0.177483605460916  0.177483605460916  0.967987158791473
  0.002501725168403  0.491434263778475  0.491434263778475  0.719016501040843
  0.002513267174598  0.645666470742426  0.645666470742426  0.407712664897770
  0.002302694782227  0.286128901030764  0.286128901030764  0.914472801120872
  0.001462495621595  0.075680843671780  0.075680843671780  0.994255912631278
  0.002445373437313  0.392725976336800  0.392725976336800  0.831584400419232
  0.002417442375639  0.881813287779429  0.000000000000000  0.471598691151316
  0.001910951282180  0.977642811118265  0.000000000000000  0.210272522857307
  0.002416930044325  0.205482369640304  0.868946032287241  0.450233038258263
  0.002512236854563  0.590515704892527  0.799927854385729  0.106801826075805
  0.002496644054553  0.555015236107681  0.771746262691590  0.310428403516654
  0.002236607760438  0.937180985855372  0.334436314534346  0.099217696364292
   total no. of   reducible points: 434; test:  1.00000000
  0.000309512129531  1.000000000000000  0.000000000000000  0.000000000000000
  0.001852379698597  0.577350269189626  0.577350269189626  0.577350269189626
  0.001871790639278  0.704095493822747  0.704095493822747  0.092190407076898
  0.001858812585438  0.680774406645524  0.680774406645524  0.270356088359165
  0.001852028828296  0.637254693925875  0.637254693925875  0.433373868777154
  0.001846715956151  0.504441970780036  0.504441970780036  0.700768575373573
  0.001818471778163  0.421576178401097  0.421576178401097  0.802836877335274
  0.001749564657281  0.331792073647212  0.331792073647212  0.883078727934133
  0.001617210647254  0.238473670142189  0.238473670142189  0.941414158220403
  0.001384737234852  0.145903644915776  0.145903644915776  0.978480583762694
  0.000976433116505  0.060950341155072  0.060950341155072  0.996278129754016
  0.001857161196774  0.611684344200988  0.000000000000000  0.791101929626902
  0.001705153996396  0.396475534819986  0.000000000000000  0.918045287711454
  0.001300321685886  0.172478200990772  0.000000000000000  0.985013335028002
  0.001842866472905  0.561026380862206  0.351828092773352  0.749310611904116
  0.001802658934377  0.474239284255198  0.263471665593795  0.840047488359050
  0.001849830560444  0.598412649788538  0.181664084036021  0.780320742479920
  0.001713904507107  0.379103540769556  0.172079522565688  0.909213475092374
  0.001555213603397  0.277867319058624  0.082130215819325  0.957102074310073
  0.001802239128009  0.503356427107512  0.089992058420749  0.859379855890721
   total no. of   reducible points: 590; test:  1.00000000
  qrot: 

              1        2        3      
    1    1.0000   0.0000   0.0000
    2    0.0000   1.0000   0.0000
    3    0.0000   0.0000   1.0000
  me                     0   done genpts
  me                     1   done genpts
  me                     2   done genpts
  me                     3   done genpts
  me                     4   done genpts
  me                     5   done genpts
  me                     6   done genpts
  me                     7   done genpts
  me                     0   done uprt
  me                     1   done uprt
  me                     2   done uprt
  me                     3   done uprt
  me                     4   done uprt
  me                     5   done uprt
  me                     6   done uprt
  me                     7   done uprt
  me                     0  done mem
  me                     1  done mem
  me                     2  done mem
  me                     3  done mem
  me                     4  done mem
  me                     5  done mem
  me                     6  done mem
  me                     7  done mem
  dftinpanae: itol2e                     8  iaoacc                    14  tol_rho    1.0000000000000000E-010

            General Information
            -------------------
          SCF calculation type: DFT
          Wavefunction type:  spin polarized.
          No. of atoms     :     1
          No. of electrons :     9
           Alpha electrons :     5
            Beta electrons :     4
          Charge           :     0
          Spin multiplicity:     2
          Use of symmetry is: off; symmetry adaption is: off
          Maximum number of iterations:  50
          AO basis - number of functions:    55
                     number of shells:    14
          Convergence on energy requested:  1.00D-06
          Convergence on density requested:  1.00D-05
          Convergence on gradient requested:  5.00D-04

              XC Information
              --------------
                     Hartree-Fock (Exact) Exchange  1.000          
                     LC-wPBE(h)Exchange Functional  1.000          
            Perdew 1991 LDA Correlation Functional  1.000 local    
           PerdewBurkeErnz. Correlation Functional  1.000 non-local

           Range-Separation Parameters        
           ---------------------------
           Alpha           :  0.00
           Beta            :  1.00
           Gamma           :  0.42
           Short-Range HF  :     F

             Grid Information
             ----------------
          Grid used for XC integration:  fine      
          Radial quadrature: Mura-Knowles        
          Angular quadrature: Lebedev. 
          Tag              B.-S. Rad. Rad. Pts. Rad. Cut. Ang. Pts.
          ---              ---------- --------- --------- ---------
          F                   0.50       70           6.0       590
          Grid pruning is: on 
          Number of quadrature shells:    70
          Spatial weights used:  Erf1

          Convergence Information
          -----------------------
          Convergence aids based upon iterative change in 
          total energy or number of iterations. 
          Levelshifting, if invoked, occurs when the 
          HOMO/LUMO gap drops below (HL_TOL):  1.00D-02
          DIIS, if invoked, will attempt to extrapolate 
          using up to (NFOCK): 10 stored Fock matrices.

                    Damping( 0%)  Levelshifting(0.5)       DIIS
                  --------------- ------------------- ---------------
          dE  on:    start            ASAP                start   
          dE off:    2 iters         50 iters            50 iters 


      Screening Tolerance Information
      -------------------------------
          Density screening/tol_rho:  1.00D-10
          AO Gaussian exp screening on grid/accAOfunc:  14
          CD Gaussian exp screening on grid/accCDfunc:  20
          XC Gaussian exp screening on grid/accXCfunc:  20
          Schwarz screening/accCoul:  1.00D-08



                         Geometry "geometry" -> "geometry"
                         ---------------------------------

 Output coordinates in angstroms (scale by  1.889725989 to convert to a.u.)

  No.       Tag          Charge          X              Y              Z
 ---- ---------------- ---------- -------------- -------------- --------------
    1 F                    9.0000     0.00000000     0.00000000     0.00000000

      Atomic Mass 
      ----------- 

      F                 18.998400


 Effective nuclear repulsion energy (a.u.)       0.0000000000

            Nuclear Dipole moment (a.u.) 
            ----------------------------
        X                 Y               Z
 ---------------- ---------------- ----------------
     0.0000000000     0.0000000000     0.0000000000

  
  CAM type calculations without CDFIT are
  only available with the direct option.
  Forcing Direct SCF
  


     <<<<<<    Before call to DFT_SCF.    >>>>>>
     <<<<<< date:  May  8  time: 11:50:00 >>>>>>


 Setting tolerance for linear dependence to 1.00D-05





 Setting tolerance for linear dependence to 1.00D-05

 Setting tolerance for linear dependence to 1.00D-05

 Setting tolerance for linear dependence to 1.00D-05
 Setting tolerance for linear dependence to 1.00D-05
 Setting tolerance for linear dependence to 1.00D-05
 Setting tolerance for linear dependence to 1.00D-05
 Setting tolerance for linear dependence to 1.00D-05
  lindep tolerance =    1.0000000000000001E-005
  lindep tolerance =    1.0000000000000001E-005
  lindep tolerance =    1.0000000000000001E-005
  lindep tolerance =    1.0000000000000001E-005
  lindep tolerance =    1.0000000000000001E-005
  lindep tolerance =    1.0000000000000001E-005
  lindep tolerance =    1.0000000000000001E-005
  lindep tolerance =    1.0000000000000001E-005


     <<<<<<    Before 3c-2e initialize.   >>>>>>
     <<<<<< date:  May  8  time: 11:50:00 >>>>>>


 Setting fock-build task_bf   :      -1
                    maxquartet:   10000
                    maxeri    :  129600
                    maxscr    :       0
                    intacc    : 0.0D+00
                    denscreen : T
                    dentol    : 1.0D-06


      Superposition of Atomic Density Guess
      -------------------------------------

 Sum of atomic energies:         -99.41279054

      Non-variational initial energy
      ------------------------------

 Total energy =     -99.054581
 1-e energy   =    -139.239488
 2-e energy   =      40.184907
 HOMO         =      -0.592042
 LUMO         =       0.159039


 Setting fock-build task_bf   :      -1
                    maxquartet:   10000
                    maxeri    :  129600
                    maxscr    :       0
                    intacc    : 0.0D+00
                    denscreen : T
                    dentol    : 1.0D-06


 Wrote molecular orbitals to ./f.movecs

  WARNING: movecs_in_org=atomic not equal to movecs_in=./f.movecs
   Time after variat. SCF:      0.2

 Setting fock-build task_bf   :      -1
                    maxquartet:   10000
                    maxeri    :  129600
                    maxscr    :       0
                    intacc    : 0.0D+00
                    denscreen : T
                    dentol    : 1.0D-06

   Time prior to 1st pass:      0.2


     <<<<<<      Before SCF iter loop.    >>>>>>
     <<<<<< date:  May  8  time: 11:50:00 >>>>>>

           DAMPING=T LEVELSHIFTING=F DIISING=T
          itol2e= 8 iAOacc=12 iXCacc=20


     <<<<<<            calling 1-e int    >>>>>>
     <<<<<< date:  May  8  time: 11:50:00 >>>>>>

    Kinetic Matrix Time:          0.0s

           Kinetic energy =     98.765643056920

    Potential Matrix Time:          0.0s


     <<<<<<    Before call to GETVXC.     >>>>>>
     <<<<<< date:  May  8  time: 11:50:00 >>>>>>



     <<<<<<    Before call to fock_2e.    >>>>>>
     <<<<<< date:  May  8  time: 11:50:00 >>>>>>



     <<<<<<     After call to fock_2e.    >>>>>>
     <<<<<< date:  May  8  time: 11:50:00 >>>>>>

    Fock_2e Build Time:          0.1s
  *** grid_quadv0:                    calc_type:                    1
  *** grid_quadv0:                    grid_written: F
  *** grid_quadv0:                    grad: T
  *** grid_quadv0:                    kske: F
  *** grid_quadv0:                    kslap: F
  *** grid_quadv0:                    do_scf: T
  *** grid_quadv0:                    calc_type:                    1
  *** grid_quadv0:                    grid_written: F
  *** grid_quadv0:                    grad: T
  *** grid_quadv0:                    kske: F
  *** grid_quadv0:                    kslap: F
  *** grid_quadv0:                    do_scf: T
  *** grid_quadv0:                    fde_option:                    0
  *** grid_quadv0:                    n_per_rec:                 3070
  *** grid_quadv0:                    calc_type:                    1
  *** grid_quadv0:                    grid_written: F
  *** grid_quadv0:                    grad: T
  *** grid_quadv0:                    kske: F
  *** grid_quadv0:                    kslap: F
  *** grid_quadv0:                    do_scf: T
  *** grid_quadv0:                    fde_option:                    0
  *** grid_quadv0:                    n_per_rec:                 3070
  *** grid_quadv0:                    calc_type:                    1
  *** grid_quadv0:                    grid_written: F
  *** grid_quadv0:                    grad: T
  *** grid_quadv0:                    kske: F
  *** grid_quadv0:                    kslap: F
  *** grid_quadv0:                    do_scf: T
  *** grid_quadv0:                    fde_option:                    0
  *** grid_quadv0:                    n_per_rec:                 3070
  *** grid_quadv0:                    fde_option:                    0
  *** grid_quadv0:                    n_per_rec:                 3070
  *** grid_quadv0:                    calc_type:                    1
  *** grid_quadv0:                    grid_written: F
  *** grid_quadv0:                    grad: T
  *** grid_quadv0:                    kske: F
  *** grid_quadv0:                    kslap: F
  *** grid_quadv0:                    do_scf: T
  *** grid_quadv0:                    fde_option:                    0
  *** grid_quadv0:                    n_per_rec:                 3070
  *** grid_quadv0:                    calc_type:                    1
  *** grid_quadv0:                    grid_written: F
  *** grid_quadv0:                    grad: T
  *** grid_quadv0:                    kske: F
  *** grid_quadv0:                    kslap: F
  *** grid_quadv0:                    do_scf: T
  *** grid_quadv0:                    fde_option:                    0
  *** grid_quadv0:                    n_per_rec:                 3070
  *** grid_quadv0:                    calc_type:                    1
  *** grid_quadv0:                    grid_written: F
  *** grid_quadv0:                    grad: T
  *** grid_quadv0:                    kske: F
  *** grid_quadv0:                    kslap: F
  *** grid_quadv0:                    do_scf: T
  *** grid_quadv0:                    fde_option:                    0
  *** grid_quadv0:                    n_per_rec:                 3070
  *** grid_quadv0:                    calc_type:                    1
  *** grid_quadv0:                    grid_written: F
  *** grid_quadv0:                    grad: T
  *** grid_quadv0:                    kske: F
  *** grid_quadv0:                    kslap: F
  *** grid_quadv0:                    do_scf: T
  *** grid_quadv0:                    fde_option:                    0
  *** grid_quadv0:                    n_per_rec:                 3070
   0: nuse=   8 avail= 12500000Mb on .
   2: nuse=   8 avail= 12500000Mb on .
   3: nuse=   8 avail= 12500000Mb on .
   4: nuse=   8 avail= 12500000Mb on .
   6: nuse=   8 avail= 12500000Mb on .
   1: nuse=   8 avail= 12500000Mb on .
   5: nuse=   8 avail= 12500000Mb on .
   7: nuse=   8 avail= 12500000Mb on .
 l_cube input   11.00

  atom type   l_cube   no. cubes   segmts   rad   sub
 ----------- -------- ----------- -------- ----- -----
        1      8.00        34         3      12     8

 Grid_pts file          = ./f.gridpts.0
 Record size in doubles =  12289        No. of grid_pts per rec  =   3070
 Max. records in memory =      3        Max. recs in file   = 126656358

 me   0 NQTOTC NQ/cube    4257     236
 me   1 NQTOTC NQ/cube    2656    1328
 me   2 NQTOTC NQ/cube    2454     818
 me   3 NQTOTC NQ/cube    2720     906
 me   4 NQTOTC NQ/cube    2314    2314
 me   5 NQTOTC NQ/cube    1873     624
 me   6 NQTOTC NQ/cube    2109    1054
 me   7 NQTOTC NQ/cube    2109    1054

 XC quadr. integrated density :       9.000000 npts:    20391 nctrs:        1

    Fock_xc Build Time:          0.0s


     <<<<<<    Before call to GETVCOUL.   >>>>>>
     <<<<<< date:  May  8  time: 11:50:00 >>>>>>



     <<<<<<    End of parallel region.    >>>>>>
     <<<<<< date:  May  8  time: 11:50:00 >>>>>>

    Total Fock Matrix Build Time:          0.1s
 Etnew, Ecore, Ecoul, Exc(1), Exc(2), Totsic:   -99.689693609481694       -138.66604787596731        49.213683032528849       -10.237328766043230        0.0000000000000000        0.0000000000000000     
  delta =   -99.689693609481694     
  delta =   -99.689693609481694     
  delta =   -99.689693609481694     


         Total DFT energy =      -99.689693609482
      One electron energy =     -138.666047875967
           Coulomb energy =       49.213683032529
    Exchange-Corr. energy =      -10.237328766043
 Nuclear repulsion energy =        0.000000000000
  delta =   -99.689693609481694     
  delta =   -99.689693609481694     
  delta =   -99.689693609481694     
  delta =   -99.689693609481694     
  delta =   -99.689693609481694     

 Numeric. integr. density =        8.999999993177

     Total iterative time =      1.4s




     <<<<<<        calling diis driver    >>>>>>
     <<<<<< date:  May  8  time: 11:50:00 >>>>>>

 nhist                     1  pulay matrix 
   0.0000E+00
  -1.0000E+00   1.7934E-01


     <<<<<<         called diis driver    >>>>>>
     <<<<<< date:  May  8  time: 11:50:00 >>>>>>


 global array: fock transf[1:55,1:55],  handle: -940 

            1           2           3           4           5           6  
       ----------- ----------- ----------- ----------- ----------- -----------
   1       8.57901     0.00000     0.00000     0.00000     5.90433    -0.00000
   2       0.00000    16.58220    -0.02165     0.00835    -0.00000     0.00133
   3       0.00000    -0.02165    16.56169     0.01327    -0.00000     0.00020
   4       0.00000     0.00835     0.01327    16.59065    -0.00000     0.00289
   5       5.90433    -0.00000    -0.00000    -0.00000    12.11607     0.00000
   6      -0.00000     0.00133     0.00020     0.00289     0.00000     6.60401
   7       0.00000     0.66385    -1.83557     0.40329    -0.00000     0.00475
   8       0.00000     1.76695     0.74462     0.53423     0.00000     0.01138
   9      -0.00000     0.64069    -0.18963    -1.87935    -0.00000    -0.01301
  10      -2.68957     0.00000     0.00000     0.00000    -3.30834    -0.00000
  11      -0.00000     0.00345     0.00205    -0.00188     0.00000    -0.00000
  12      -0.00000     0.00101     0.00013     0.00151    -0.00000     0.00002
  13       0.00000     0.00005    -0.00095    -0.00011     0.00000    -0.00000
  14      -0.42050     0.00000     0.00000     0.00000     0.92259    -0.00000
  15      -0.00000    -0.33132     0.02949    -0.61618    -0.00000     0.02169
  16      -0.00000    -0.58767    -0.21911     0.30518    -0.00000    -0.00057
  17      -0.00000     0.18084    -0.65744    -0.13034    -0.00000     0.00261
  18       0.00258     0.00000     0.00000    -0.00000     0.01020    -0.00000
  19      -0.00099    -0.00000     0.00000    -0.00000    -0.00391     0.00000
  20       0.00034    -0.00000     0.00000     0.00000     0.00133     0.00000
  21       0.00000     0.00063     0.00009     0.00136    -0.00000     2.52659
  22       0.00063     0.00000    -0.00000    -0.00000     0.00248    -0.00000
  23       0.00234    -0.00000    -0.00000    -0.00000     0.00927     0.00000
  24      -0.00000     0.00108     0.00031     0.00019    -0.00000    -0.00008
  25      -0.00000    -0.00064    -0.00022     0.00092    -0.00000    -0.00007
  26       0.00000    -0.00049    -0.00039     0.00036    -0.00000    -0.00001
  27      -0.00197    -0.00000    -0.00000     0.00000    -0.00310    -0.00000
  28       0.00023     0.00000    -0.00000    -0.00000     0.00037    -0.00000
  29       0.00068     0.00000    -0.00000     0.00000     0.00107    -0.00000
  30      -0.00000     0.41039    -0.04289    -0.11119    -0.00000     0.00175
  31      -0.00000     0.11629     0.19690     0.36315     0.00000     0.01011
  32       0.00000     0.02377    -0.37251     0.19897     0.00000     0.00434
  33       0.00000     0.11312    -0.58937     0.53422     0.00000    -0.00120
  34      -0.00000     0.29791     0.52757     0.53237     0.00000    -0.00154
  35      -0.00000    -0.74112     0.13106     0.29168    -0.00000     0.00009
  36      -0.33868     0.00000     0.00000     0.00000    -1.43695    -0.00000
  37       0.00182    -0.00000    -0.00000    -0.00000     0.00287     0.00000
  38      -0.00019     0.00000     0.00000    -0.00000    -0.00031     0.00000
  39      -0.00022    -0.00000    -0.00000     0.00000     0.00086    -0.00000
  40      -0.00002    -0.00000    -0.00000     0.00000     0.00008     0.00000
  41      -0.00006    -0.00000     0.00000     0.00000     0.00024    -0.00000
  42       0.00000    -0.00304     0.00398     0.00032     0.00000     0.00100
  43       0.00000    -0.00157    -0.00089    -0.00523    -0.00000     0.00856
  44      -0.00000    -0.00368    -0.00051     0.00106     0.00000     0.00119
  45      -0.00012     0.00000     0.00000     0.00000     0.00048    -0.00000
  46       0.00016     0.00000    -0.00000    -0.00000    -0.00062     0.00000
  47       0.12248    -0.00000    -0.00000    -0.00000    -0.68156     0.00000
  48      -0.00000    -0.31704     0.02193     0.16194    -0.00000     0.00077
  49       0.00000     0.13086    -0.17314     0.28268     0.00000     0.01439
  50       0.00000     0.09734     0.31290     0.14326     0.00000     0.00911
  51      -0.48895     0.00000     0.00000     0.00000    -1.09835    -0.00000
  52      -0.00000     0.07282     0.06680     0.14294     0.00000     0.00915
  53       0.00000    -0.15785     0.01803     0.07191     0.00000     0.00003
  54      -0.00000     0.01202    -0.16190     0.06762     0.00000     0.00314
  55       0.22133    -0.00000    -0.00000    -0.00000     0.41862    -0.00000

            7           8           9          10          11          12  
       ----------- ----------- ----------- ----------- ----------- -----------
   1       0.00000     0.00000    -0.00000    -2.68957    -0.00000    -0.00000
   2       0.66385     1.76695     0.64069     0.00000     0.00345     0.00101
   3      -1.83557     0.74462    -0.18963     0.00000     0.00205     0.00013
   4       0.40329     0.53423    -1.87935     0.00000    -0.00188     0.00151
   5      -0.00000     0.00000    -0.00000    -3.30834     0.00000    -0.00000
   6       0.00475     0.01138    -0.01301    -0.00000    -0.00000     0.00002
   7       4.11874     0.01007     0.00943     0.00000    -0.00278     0.00246
   8       0.01007     4.10768    -0.00628    -0.00000     0.01323     0.00706
   9       0.00943    -0.00628     4.11608     0.00000     0.01165    -0.00684
  10       0.00000    -0.00000     0.00000    18.51816     0.00000     0.00000
  11      -0.00278     0.01323     0.01165     0.00000     6.58131    -0.00177
  12       0.00246     0.00706    -0.00684     0.00000    -0.00177     6.60397
  13      -0.00162    -0.00388    -0.00289     0.00000    -0.00386     0.00143
  14       0.00000     0.00000     0.00000     3.18277    -0.00000     0.00000
  15       0.56512     0.95959    -1.01150     0.00000    -0.00018     0.01208
  16      -0.15522     1.12947     0.98490    -0.00000     0.01007    -0.00052
  17      -1.39484     0.26653    -0.52322     0.00000    -0.00449     0.00255
  18      -0.00000    -0.00000    -0.00000    -0.00090    -0.00000     0.00000
  19       0.00000    -0.00000    -0.00000     0.00035    -0.00000     0.00000
  20       0.00000    -0.00000    -0.00000    -0.00012    -0.00000    -0.00000
  21       0.00123     0.00294    -0.00336    -0.00000     0.00001    -0.00010
  22       0.00000     0.00000    -0.00000    -0.00022     0.00000    -0.00000
  23      -0.00000    -0.00000    -0.00000    -0.00082    -0.00000    -0.00000
  24       0.00075     0.00330     0.00044     0.00000     1.21786     1.92532
  25      -0.00000    -0.00114    -0.00334    -0.00000    -1.42323     1.63622
  26       0.00111    -0.00105    -0.00094     0.00000    -1.68020     0.01197
  27       0.00000    -0.00000    -0.00000     0.00579     0.00000    -0.00000
  28      -0.00000    -0.00000     0.00000    -0.00068    -0.00000     0.00000
  29       0.00000    -0.00000    -0.00000    -0.00200     0.00000    -0.00000
  30       0.66946     1.42788     1.07875    -0.00000     0.01059     0.00157
  31      -0.31414     1.22513    -1.43508    -0.00000     0.00036     0.00571
  32       1.76213    -0.31205    -0.65619    -0.00000    -0.00639     0.00217
  33       0.79478     0.02429    -0.47152    -0.00000    -0.00657    -0.00048
  34      -0.32405     0.69389    -0.52316    -0.00000     0.00491    -0.00109
  35      -0.35514    -0.60876    -0.60442     0.00000    -0.00513    -0.00122
  36      -0.00000    -0.00000     0.00000     0.84882     0.00000    -0.00000
  37       0.00000    -0.00000    -0.00000    -0.00535    -0.00000     0.00000
  38       0.00000     0.00000    -0.00000     0.00057     0.00000    -0.00000
  39       0.00000    -0.00000    -0.00000     0.00448     0.00000    -0.00000
  40       0.00000     0.00000    -0.00000     0.00043     0.00000     0.00000
  41       0.00000    -0.00000     0.00000     0.00125    -0.00000     0.00000
  42      -0.03486    -0.08568    -0.06914     0.00000     0.00993     0.00129
  43      -0.01273    -0.07042     0.09199     0.00000    -0.00064     0.00476
  44      -0.10514     0.03719     0.01627     0.00000    -0.00661     0.00053
  45      -0.00000     0.00000    -0.00000     0.00249    -0.00000    -0.00000
  46      -0.00000    -0.00000     0.00000    -0.00323    -0.00000     0.00000
  47       0.00000     0.00000    -0.00000    -2.31296    -0.00000     0.00000
  48      -0.08198    -0.17976    -0.20446     0.00000    -0.02413    -0.00171
  49       0.21132     0.10222    -0.16155     0.00000    -0.00870     0.00817
  50      -0.18729     0.18918    -0.11082     0.00000     0.01436     0.00521
  51       0.00000    -0.00000     0.00000     0.20885    -0.00000     0.00000
  52      -0.00559     0.06517    -0.06121    -0.00000     0.00311     0.00518
  53      -0.03180    -0.05751    -0.06218    -0.00000    -0.01373    -0.00125
  54       0.08920    -0.01498    -0.02024    -0.00000    -0.01032     0.00170
  55      -0.00000     0.00000    -0.00000    -0.37992     0.00000    -0.00000

           13          14          15          16          17          18  
       ----------- ----------- ----------- ----------- ----------- -----------
   1       0.00000    -0.42050    -0.00000    -0.00000    -0.00000     0.00258
   2       0.00005     0.00000    -0.33132    -0.58767     0.18084     0.00000
   3      -0.00095     0.00000     0.02949    -0.21911    -0.65744     0.00000
   4      -0.00011     0.00000    -0.61618     0.30518    -0.13034    -0.00000
   5       0.00000     0.92259    -0.00000    -0.00000    -0.00000     0.01020
   6      -0.00000    -0.00000     0.02169    -0.00057     0.00261    -0.00000
   7      -0.00162     0.00000     0.56512    -0.15522    -1.39484    -0.00000
   8      -0.00388     0.00000     0.95959     1.12947     0.26653    -0.00000
   9      -0.00289     0.00000    -1.01150     0.98490    -0.52322    -0.00000
  10       0.00000     3.18277     0.00000    -0.00000     0.00000    -0.00090
  11      -0.00386    -0.00000    -0.00018     0.01007    -0.00449    -0.00000
  12       0.00143     0.00000     0.01208    -0.00052     0.00255     0.00000
  13       6.62679    -0.00000    -0.00292    -0.01115     0.01379     0.00000
  14      -0.00000     1.79094     0.00000    -0.00000     0.00000     0.00870
  15      -0.00292     0.00000     5.70137     0.00054     0.00299    -0.00000
  16      -0.01115    -0.00000     0.00054     5.69085    -0.00552    -0.00000
  17       0.01379     0.00000     0.00299    -0.00552     5.67657     0.00000
  18       0.00000     0.00870    -0.00000    -0.00000     0.00000     4.99256
  19       0.00000    -0.00333    -0.00000    -0.00000     0.00000     0.00430
  20      -0.00000     0.00114     0.00000    -0.00000    -0.00000    -0.00875
  21       0.00001     0.00000     0.01202    -0.00031     0.00145     0.00000
  22       0.00000     0.00212    -0.00000     0.00000     0.00000     0.00748
  23      -0.00000     0.00791    -0.00000     0.00000    -0.00000    -0.01568
  24      -1.09068    -0.00000     0.00565     0.00578    -0.00246    -0.00000
  25       1.29912     0.00000     0.00371    -0.00695     0.00489    -0.00000
  26      -1.88607     0.00000     0.00116    -0.00100    -0.00325    -0.00000
  27       0.00000     0.00012    -0.00000    -0.00000     0.00000    -3.13474
  28       0.00000    -0.00001     0.00000    -0.00000    -0.00000     0.16435
  29      -0.00000    -0.00004    -0.00000    -0.00000     0.00000    -0.15708
  30      -0.00213     0.00000     0.23334     0.91328    -0.39743    -0.00000
  31      -0.00050     0.00000     0.86892     0.00704     0.53923     0.00000
  32       0.00076     0.00000     0.48292    -0.45245    -0.78294    -0.00000
  33       0.00527     0.00000    -1.66970     1.00472     1.48275     0.00000
  34      -0.00453     0.00000    -1.78496    -0.57400    -1.58289    -0.00000
  35      -0.00980    -0.00000     0.30109     2.16836    -1.10835    -0.00000
  36       0.00000    -0.87942     0.00000    -0.00000     0.00000    -0.02497
  37      -0.00000    -0.00011    -0.00000     0.00000    -0.00000    -0.00693
  38      -0.00000     0.00001    -0.00000     0.00000     0.00000     0.00717
  39       0.00000     0.00191    -0.00000    -0.00000     0.00000    -0.58633
  40      -0.00000     0.00018    -0.00000     0.00000     0.00000     0.00172
  41       0.00000     0.00053     0.00000     0.00000    -0.00000     0.05820
  42       0.00005    -0.00000     0.02422     0.11887    -0.05233    -0.00000
  43      -0.00070    -0.00000     0.12156    -0.00954     0.03909     0.00000
  44       0.00218    -0.00000     0.03130    -0.05601    -0.12561    -0.00000
  45      -0.00000     0.00106     0.00000    -0.00000    -0.00000     0.00018
  46       0.00000    -0.00138    -0.00000    -0.00000    -0.00000     0.00151
  47      -0.00000    -1.33154    -0.00000    -0.00000     0.00000    -0.00678
  48      -0.00467    -0.00000     0.00895     0.41772    -0.15619    -0.00000
  49       0.00419    -0.00000    -0.40580     0.08541     0.16457     0.00000
  50      -0.00764    -0.00000    -0.20755    -0.14775    -0.34869    -0.00000
  51      -0.00000    -0.43210    -0.00000    -0.00000     0.00000    -0.01675
  52      -0.00206     0.00000    -0.19121    -0.02370    -0.07769    -0.00000
  53      -0.00307    -0.00000     0.01323     0.18867    -0.07462    -0.00000
  54       0.00472     0.00000    -0.08451     0.08457     0.15031     0.00000
  55      -0.00000     0.07241     0.00000     0.00000    -0.00000     0.00031

           19          20          21          22          23          24  
       ----------- ----------- ----------- ----------- ----------- -----------
   1      -0.00099     0.00034     0.00000     0.00063     0.00234    -0.00000
   2      -0.00000    -0.00000     0.00063     0.00000    -0.00000     0.00108
   3       0.00000     0.00000     0.00009    -0.00000    -0.00000     0.00031
   4      -0.00000     0.00000     0.00136    -0.00000    -0.00000     0.00019
   5      -0.00391     0.00133    -0.00000     0.00248     0.00927    -0.00000
   6       0.00000     0.00000     2.52659    -0.00000     0.00000    -0.00008
   7       0.00000     0.00000     0.00123     0.00000    -0.00000     0.00075
   8      -0.00000    -0.00000     0.00294     0.00000    -0.00000     0.00330
   9      -0.00000    -0.00000    -0.00336    -0.00000    -0.00000     0.00044
  10       0.00035    -0.00012    -0.00000    -0.00022    -0.00082     0.00000
  11      -0.00000    -0.00000     0.00001     0.00000    -0.00000     1.21786
  12       0.00000    -0.00000    -0.00010    -0.00000    -0.00000     1.92532
  13       0.00000    -0.00000     0.00001     0.00000    -0.00000    -1.09068
  14      -0.00333     0.00114     0.00000     0.00212     0.00791    -0.00000
  15      -0.00000     0.00000     0.01202    -0.00000    -0.00000     0.00565
  16      -0.00000    -0.00000    -0.00031     0.00000     0.00000     0.00578
  17       0.00000    -0.00000     0.00145     0.00000    -0.00000    -0.00246
  18       0.00430    -0.00875     0.00000     0.00748    -0.01568    -0.00000
  19       4.99570    -0.01322    -0.00000    -0.00268     0.00563    -0.00000
  20      -0.01322     5.01781    -0.00000     0.00130    -0.00212    -0.00000
  21      -0.00000    -0.00000     4.35858     0.00000    -0.00000     0.00001
  22      -0.00268     0.00130     0.00000     5.00245    -0.01626    -0.00000
  23       0.00563    -0.00212    -0.00000    -0.01626     5.00160     0.00000
  24      -0.00000    -0.00000     0.00001    -0.00000     0.00000     4.35652
  25      -0.00000     0.00000     0.00001    -0.00000    -0.00000    -0.00041
  26      -0.00000     0.00000     0.00000    -0.00000     0.00000     0.01756
  27       0.05524    -0.21056    -0.00000    -0.00426     0.00917     0.00000
  28      -1.49446    -2.76650     0.00000     0.00029    -0.00095    -0.00000
  29      -2.76659     1.50723     0.00000     0.00146    -0.00300     0.00000
  30      -0.00000    -0.00000     0.00433    -0.00000    -0.00000     0.01709
  31      -0.00000    -0.00000     0.02503    -0.00000     0.00000     0.00930
  32       0.00000     0.00000     0.01074     0.00000    -0.00000     0.00166
  33      -0.00000    -0.00000    -0.00906    -0.00000     0.00000    -0.00692
  34       0.00000     0.00000    -0.01171    -0.00000    -0.00000    -0.00220
  35      -0.00000    -0.00000     0.00067    -0.00000    -0.00000     0.00813
  36       0.00956    -0.00326    -0.00000    -0.00608    -0.02270    -0.00000
  37       0.00249    -0.00088    -0.00000     1.12454     2.93386     0.00000
  38      -0.00257     0.00112    -0.00000     2.94110    -1.14158    -0.00000
  39       0.05012    -0.03198    -0.00000     0.00077    -0.00136     0.00000
  40       0.32534     0.49073    -0.00000     0.00004    -0.00011    -0.00000
  41       0.48850    -0.32052    -0.00000     0.00022    -0.00036    -0.00000
  42      -0.00000    -0.00000     0.00038     0.00000    -0.00000     0.00166
  43      -0.00000    -0.00000     0.00325    -0.00000     0.00000     0.00083
  44       0.00000     0.00000     0.00046     0.00000     0.00000     0.00294
  45      -0.00007     0.00005     0.00000    -0.54372    -0.22775    -0.00000
  46      -0.00054     0.00021     0.00000    -0.22501     0.54252     0.00000
  47       0.00260    -0.00089     0.00000    -0.00165    -0.00616    -0.00000
  48      -0.00000    -0.00000     0.00037    -0.00000     0.00000    -0.00542
  49      -0.00000    -0.00000     0.00692     0.00000     0.00000    -0.00013
  50       0.00000     0.00000     0.00438    -0.00000    -0.00000     0.00720
  51       0.00642    -0.00219    -0.00000    -0.00408    -0.01523    -0.00000
  52       0.00000     0.00000     0.02200    -0.00000    -0.00000     0.01514
  53      -0.00000    -0.00000     0.00007    -0.00000    -0.00000    -0.01478
  54      -0.00000    -0.00000     0.00754    -0.00000    -0.00000    -0.01341
  55      -0.00012     0.00004    -0.00000     0.00008     0.00028     0.00000

           25          26          27          28          29          30  
       ----------- ----------- ----------- ----------- ----------- -----------
   1      -0.00000     0.00000    -0.00197     0.00023     0.00068    -0.00000
   2      -0.00064    -0.00049    -0.00000     0.00000     0.00000     0.41039
   3      -0.00022    -0.00039    -0.00000    -0.00000    -0.00000    -0.04289
   4       0.00092     0.00036     0.00000    -0.00000     0.00000    -0.11119
   5      -0.00000    -0.00000    -0.00310     0.00037     0.00107    -0.00000
   6      -0.00007    -0.00001    -0.00000    -0.00000    -0.00000     0.00175
   7      -0.00000     0.00111     0.00000    -0.00000     0.00000     0.66946
   8      -0.00114    -0.00105    -0.00000    -0.00000    -0.00000     1.42788
   9      -0.00334    -0.00094    -0.00000     0.00000    -0.00000     1.07875
  10      -0.00000     0.00000     0.00579    -0.00068    -0.00200    -0.00000
  11      -1.42323    -1.68020     0.00000    -0.00000     0.00000     0.01059
  12       1.63622     0.01197    -0.00000     0.00000    -0.00000     0.00157
  13       1.29912    -1.88607     0.00000     0.00000    -0.00000    -0.00213
  14       0.00000     0.00000     0.00012    -0.00001    -0.00004     0.00000
  15       0.00371     0.00116    -0.00000     0.00000    -0.00000     0.23334
  16      -0.00695    -0.00100    -0.00000    -0.00000    -0.00000     0.91328
  17       0.00489    -0.00325     0.00000    -0.00000     0.00000    -0.39743
  18      -0.00000    -0.00000    -3.13474     0.16435    -0.15708    -0.00000
  19      -0.00000    -0.00000     0.05524    -1.49446    -2.76659    -0.00000
  20       0.00000     0.00000    -0.21056    -2.76650     1.50723    -0.00000
  21       0.00001     0.00000    -0.00000     0.00000     0.00000     0.00433
  22      -0.00000    -0.00000    -0.00426     0.00029     0.00146    -0.00000
  23      -0.00000     0.00000     0.00917    -0.00095    -0.00300    -0.00000
  24      -0.00041     0.01756     0.00000    -0.00000     0.00000     0.01709
  25       4.36231    -0.02046     0.00000     0.00000     0.00000    -0.01600
  26      -0.02046     4.35699     0.00000     0.00000     0.00000    -0.00279
  27       0.00000     0.00000     4.95552    -0.00628     0.00904     0.00000
  28       0.00000     0.00000    -0.00628     4.97170    -0.02502     0.00000
  29       0.00000     0.00000     0.00904    -0.02502     4.98672     0.00000
  30      -0.01600    -0.00279     0.00000     0.00000     0.00000     4.44797
  31       0.01134    -0.00109    -0.00000     0.00000    -0.00000    -0.00537
  32       0.00601     0.00830    -0.00000     0.00000    -0.00000     0.01657
  33       0.00105    -0.00319    -0.00000    -0.00000     0.00000     0.01704
  34      -0.00829     0.00167     0.00000    -0.00000     0.00000     0.03971
  35      -0.01052     0.00753     0.00000    -0.00000     0.00000    -0.36111
  36       0.00000     0.00000     0.01550    -0.00183    -0.00536    -0.00000
  37       0.00000    -0.00000     0.01797    -0.00199    -0.00581     0.00000
  38      -0.00000     0.00000    -0.01878     0.00158     0.00631     0.00000
  39       0.00000     0.00000     1.83828    -0.08495    -0.09063    -0.00000
  40      -0.00000    -0.00000    -0.08781    -1.84008    -0.15021    -0.00000
  41      -0.00000    -0.00000    -0.09166     0.17724    -1.84928    -0.00000
  42      -0.00249     0.00454    -0.00000    -0.00000     0.00000    -0.71037
  43       0.00201    -0.00044     0.00000     0.00000    -0.00000    -0.02724
  44      -0.00345     0.00094     0.00000    -0.00000    -0.00000    -0.02698
  45       0.00000     0.00000     0.00040     0.00013    -0.00021    -0.00000
  46       0.00000     0.00000     0.01240    -0.00121    -0.00409    -0.00000
  47      -0.00000     0.00000    -0.00473     0.00056     0.00164     0.00000
  48       0.00495     0.00995    -0.00000    -0.00000     0.00000    -0.04633
  49       0.00622     0.00137    -0.00000    -0.00000     0.00000     0.00969
  50      -0.00460    -0.00200    -0.00000    -0.00000     0.00000     0.00146
  51       0.00000     0.00000     0.03721    -0.00438    -0.01286     0.00000
  52       0.00141    -0.00109    -0.00000    -0.00000     0.00000     0.02909
  53       0.01252     0.02765    -0.00000    -0.00000     0.00000    -0.23780
  54       0.02210     0.00763    -0.00000     0.00000     0.00000     0.02959
  55      -0.00000    -0.00000    -0.02354     0.00277     0.00813    -0.00000

           31          32          33          34          35          36  
       ----------- ----------- ----------- ----------- ----------- -----------
   1      -0.00000     0.00000     0.00000    -0.00000    -0.00000    -0.33868
   2       0.11629     0.02377     0.11312     0.29791    -0.74112     0.00000
   3       0.19690    -0.37251    -0.58937     0.52757     0.13106     0.00000
   4       0.36315     0.19897     0.53422     0.53237     0.29168     0.00000
   5       0.00000     0.00000     0.00000     0.00000    -0.00000    -1.43695
   6       0.01011     0.00434    -0.00120    -0.00154     0.00009    -0.00000
   7      -0.31414     1.76213     0.79478    -0.32405    -0.35514    -0.00000
   8       1.22513    -0.31205     0.02429     0.69389    -0.60876    -0.00000
   9      -1.43508    -0.65619    -0.47152    -0.52316    -0.60442     0.00000
  10      -0.00000    -0.00000    -0.00000    -0.00000     0.00000     0.84882
  11       0.00036    -0.00639    -0.00657     0.00491    -0.00513     0.00000
  12       0.00571     0.00217    -0.00048    -0.00109    -0.00122    -0.00000
  13      -0.00050     0.00076     0.00527    -0.00453    -0.00980     0.00000
  14       0.00000     0.00000     0.00000     0.00000    -0.00000    -0.87942
  15       0.86892     0.48292    -1.66970    -1.78496     0.30109     0.00000
  16       0.00704    -0.45245     1.00472    -0.57400     2.16836    -0.00000
  17       0.53923    -0.78294     1.48275    -1.58289    -1.10835     0.00000
  18       0.00000    -0.00000     0.00000    -0.00000    -0.00000    -0.02497
  19      -0.00000     0.00000    -0.00000     0.00000    -0.00000     0.00956
  20      -0.00000     0.00000    -0.00000     0.00000    -0.00000    -0.00326
  21       0.02503     0.01074    -0.00906    -0.01171     0.00067    -0.00000
  22      -0.00000     0.00000    -0.00000    -0.00000    -0.00000    -0.00608
  23       0.00000    -0.00000     0.00000    -0.00000    -0.00000    -0.02270
  24       0.00930     0.00166    -0.00692    -0.00220     0.00813    -0.00000
  25       0.01134     0.00601     0.00105    -0.00829    -0.01052     0.00000
  26      -0.00109     0.00830    -0.00319     0.00167     0.00753     0.00000
  27      -0.00000    -0.00000    -0.00000     0.00000     0.00000     0.01550
  28       0.00000     0.00000    -0.00000    -0.00000    -0.00000    -0.00183
  29      -0.00000    -0.00000     0.00000     0.00000     0.00000    -0.00536
  30      -0.00537     0.01657     0.01704     0.03971    -0.36111    -0.00000
  31       4.45423     0.00575     0.09623     0.35068     0.04990    -0.00000
  32       0.00575     4.43381     0.34504    -0.08714    -0.01341    -0.00000
  33       0.09623     0.34504     4.52341     0.02432    -0.00270     0.00000
  34       0.35068    -0.08714     0.02432     4.53738     0.00080     0.00000
  35       0.04990    -0.01341    -0.00270     0.00080     4.53923    -0.00000
  36      -0.00000    -0.00000     0.00000     0.00000    -0.00000     1.16759
  37       0.00000     0.00000     0.00000    -0.00000     0.00000    -0.01432
  38      -0.00000     0.00000     0.00000    -0.00000     0.00000     0.00153
  39      -0.00000     0.00000     0.00000     0.00000     0.00000    -0.00310
  40      -0.00000     0.00000    -0.00000     0.00000     0.00000    -0.00030
  41       0.00000     0.00000     0.00000     0.00000     0.00000    -0.00087
  42       0.02827     0.00843     0.01931    -0.16559     1.65819    -0.00000
  43      -0.68855    -0.18875    -0.84299    -1.43907    -0.13355     0.00000
  44       0.18877    -0.67906    -1.42996     0.82342     0.11075    -0.00000
  45       0.00000    -0.00000    -0.00000     0.00000    -0.00000    -0.00172
  46       0.00000    -0.00000     0.00000     0.00000     0.00000     0.00223
  47       0.00000     0.00000     0.00000    -0.00000     0.00000     5.21799
  48       0.00857     0.00383     0.08573     0.00280     0.60234     0.00000
  49       0.02151     0.04106     0.56405     0.21606    -0.07418     0.00000
  50       0.03978    -0.03316    -0.19463     0.56732     0.01499    -0.00000
  51       0.00000     0.00000     0.00000     0.00000     0.00000     2.94470
  52       0.23237     0.00754     0.30243     0.84969    -0.02893     0.00000
  53       0.04324    -0.00356     0.07650    -0.00545     0.88985     0.00000
  54      -0.03218     0.25437     0.82674    -0.27071    -0.04862     0.00000
  55      -0.00000    -0.00000    -0.00000     0.00000    -0.00000    -0.70567

           37          38          39          40          41          42  
       ----------- ----------- ----------- ----------- ----------- -----------
   1       0.00182    -0.00019    -0.00022    -0.00002    -0.00006     0.00000
   2      -0.00000     0.00000    -0.00000    -0.00000    -0.00000    -0.00304
   3      -0.00000     0.00000    -0.00000    -0.00000     0.00000     0.00398
   4      -0.00000    -0.00000     0.00000     0.00000     0.00000     0.00032
   5       0.00287    -0.00031     0.00086     0.00008     0.00024     0.00000
   6       0.00000     0.00000    -0.00000     0.00000    -0.00000     0.00100
   7       0.00000     0.00000     0.00000     0.00000     0.00000    -0.03486
   8      -0.00000     0.00000    -0.00000     0.00000    -0.00000    -0.08568
   9      -0.00000    -0.00000    -0.00000    -0.00000     0.00000    -0.06914
  10      -0.00535     0.00057     0.00448     0.00043     0.00125     0.00000
  11      -0.00000     0.00000     0.00000     0.00000    -0.00000     0.00993
  12       0.00000    -0.00000    -0.00000     0.00000     0.00000     0.00129
  13      -0.00000    -0.00000     0.00000    -0.00000     0.00000     0.00005
  14      -0.00011     0.00001     0.00191     0.00018     0.00053    -0.00000
  15      -0.00000    -0.00000    -0.00000    -0.00000     0.00000     0.02422
  16       0.00000     0.00000    -0.00000     0.00000     0.00000     0.11887
  17      -0.00000     0.00000     0.00000     0.00000    -0.00000    -0.05233
  18      -0.00693     0.00717    -0.58633     0.00172     0.05820    -0.00000
  19       0.00249    -0.00257     0.05012     0.32534     0.48850    -0.00000
  20      -0.00088     0.00112    -0.03198     0.49073    -0.32052    -0.00000
  21      -0.00000    -0.00000    -0.00000    -0.00000    -0.00000     0.00038
  22       1.12454     2.94110     0.00077     0.00004     0.00022     0.00000
  23       2.93386    -1.14158    -0.00136    -0.00011    -0.00036    -0.00000
  24       0.00000    -0.00000     0.00000    -0.00000    -0.00000     0.00166
  25       0.00000    -0.00000     0.00000    -0.00000    -0.00000    -0.00249
  26      -0.00000     0.00000     0.00000    -0.00000    -0.00000     0.00454
  27       0.01797    -0.01878     1.83828    -0.08781    -0.09166    -0.00000
  28      -0.00199     0.00158    -0.08495    -1.84008     0.17724    -0.00000
  29      -0.00581     0.00631    -0.09063    -0.15021    -1.84928     0.00000
  30       0.00000     0.00000    -0.00000    -0.00000    -0.00000    -0.71037
  31       0.00000    -0.00000    -0.00000    -0.00000     0.00000     0.02827
  32       0.00000     0.00000     0.00000     0.00000     0.00000     0.00843
  33       0.00000     0.00000     0.00000    -0.00000     0.00000     0.01931
  34      -0.00000    -0.00000     0.00000     0.00000     0.00000    -0.16559
  35       0.00000     0.00000     0.00000     0.00000     0.00000     1.65819
  36      -0.01432     0.00153    -0.00310    -0.00030    -0.00087    -0.00000
  37       4.95472    -0.01720     0.00885     0.00078     0.00230    -0.00000
  38      -0.01720     4.98788    -0.00902    -0.00057    -0.00247    -0.00000
  39       0.00885    -0.00902     1.98809     0.00469    -0.00845     0.00000
  40       0.00078    -0.00057     0.00469     1.99898    -0.02186     0.00000
  41       0.00230    -0.00247    -0.00845    -0.02186     2.02263    -0.00000
  42      -0.00000    -0.00000     0.00000     0.00000    -0.00000     1.90682
  43      -0.00000    -0.00000    -0.00000     0.00000    -0.00000    -0.00046
  44       0.00000     0.00000    -0.00000     0.00000    -0.00000     0.01913
  45      -1.26745    -1.33734     0.00123    -0.00022     0.00052    -0.00000
  46       1.33707    -1.29003     0.02488     0.00187     0.00664     0.00000
  47       0.00437    -0.00047    -0.00699    -0.00067    -0.00196     0.00000
  48       0.00000    -0.00000     0.00000    -0.00000     0.00000    -0.32117
  49       0.00000     0.00000     0.00000     0.00000     0.00000     0.05741
  50       0.00000     0.00000    -0.00000    -0.00000     0.00000     0.00901
  51      -0.03437     0.00368     0.01436     0.00138     0.00402     0.00000
  52      -0.00000    -0.00000     0.00000     0.00000    -0.00000    -0.10253
  53      -0.00000     0.00000     0.00000    -0.00000    -0.00000     0.84697
  54       0.00000     0.00000    -0.00000    -0.00000    -0.00000    -0.01301
  55       0.02174    -0.00233    -0.04017    -0.00387    -0.01126    -0.00000

           43          44          45          46          47          48  
       ----------- ----------- ----------- ----------- ----------- -----------
   1       0.00000    -0.00000    -0.00012     0.00016     0.12248    -0.00000
   2      -0.00157    -0.00368     0.00000     0.00000    -0.00000    -0.31704
   3      -0.00089    -0.00051     0.00000    -0.00000    -0.00000     0.02193
   4      -0.00523     0.00106     0.00000    -0.00000    -0.00000     0.16194
   5      -0.00000     0.00000     0.00048    -0.00062    -0.68156    -0.00000
   6       0.00856     0.00119    -0.00000     0.00000     0.00000     0.00077
   7      -0.01273    -0.10514    -0.00000    -0.00000     0.00000    -0.08198
   8      -0.07042     0.03719     0.00000    -0.00000     0.00000    -0.17976
   9       0.09199     0.01627    -0.00000     0.00000    -0.00000    -0.20446
  10       0.00000     0.00000     0.00249    -0.00323    -2.31296     0.00000
  11      -0.00064    -0.00661    -0.00000    -0.00000    -0.00000    -0.02413
  12       0.00476     0.00053    -0.00000     0.00000     0.00000    -0.00171
  13      -0.00070     0.00218    -0.00000     0.00000    -0.00000    -0.00467
  14      -0.00000    -0.00000     0.00106    -0.00138    -1.33154    -0.00000
  15       0.12156     0.03130     0.00000    -0.00000    -0.00000     0.00895
  16      -0.00954    -0.05601    -0.00000    -0.00000    -0.00000     0.41772
  17       0.03909    -0.12561    -0.00000    -0.00000     0.00000    -0.15619
  18       0.00000    -0.00000     0.00018     0.00151    -0.00678    -0.00000
  19      -0.00000     0.00000    -0.00007    -0.00054     0.00260    -0.00000
  20      -0.00000     0.00000     0.00005     0.00021    -0.00089    -0.00000
  21       0.00325     0.00046     0.00000     0.00000     0.00000     0.00037
  22      -0.00000     0.00000    -0.54372    -0.22501    -0.00165    -0.00000
  23       0.00000     0.00000    -0.22775     0.54252    -0.00616     0.00000
  24       0.00083     0.00294    -0.00000     0.00000    -0.00000    -0.00542
  25       0.00201    -0.00345     0.00000     0.00000    -0.00000     0.00495
  26      -0.00044     0.00094     0.00000     0.00000     0.00000     0.00995
  27       0.00000     0.00000     0.00040     0.01240    -0.00473    -0.00000
  28       0.00000    -0.00000     0.00013    -0.00121     0.00056    -0.00000
  29      -0.00000    -0.00000    -0.00021    -0.00409     0.00164     0.00000
  30      -0.02724    -0.02698    -0.00000    -0.00000     0.00000    -0.04633
  31      -0.68855     0.18877     0.00000     0.00000     0.00000     0.00857
  32      -0.18875    -0.67906    -0.00000    -0.00000     0.00000     0.00383
  33      -0.84299    -1.42996    -0.00000     0.00000     0.00000     0.08573
  34      -1.43907     0.82342     0.00000     0.00000    -0.00000     0.00280
  35      -0.13355     0.11075    -0.00000     0.00000     0.00000     0.60234
  36       0.00000    -0.00000    -0.00172     0.00223     5.21799     0.00000
  37      -0.00000     0.00000    -1.26745     1.33707     0.00437     0.00000
  38      -0.00000     0.00000    -1.33734    -1.29003    -0.00047    -0.00000
  39      -0.00000    -0.00000     0.00123     0.02488    -0.00699     0.00000
  40       0.00000     0.00000    -0.00022     0.00187    -0.00067    -0.00000
  41      -0.00000    -0.00000     0.00052     0.00664    -0.00196     0.00000
  42      -0.00046     0.01913    -0.00000     0.00000     0.00000    -0.32117
  43       1.92093     0.00256     0.00000     0.00000    -0.00000     0.05256
  44       0.00256     1.88052    -0.00000     0.00000     0.00000    -0.00013
  45       0.00000    -0.00000     1.98764     0.01631    -0.00388    -0.00000
  46       0.00000     0.00000     0.01631     2.01882     0.00504     0.00000
  47      -0.00000     0.00000    -0.00388     0.00504   -19.66194    -0.00000
  48       0.05256    -0.00013    -0.00000     0.00000    -0.00000     0.60658
  49       0.25072     0.20389    -0.00000    -0.00000    -0.00000    -0.01243
  50       0.21367    -0.23764    -0.00000     0.00000    -0.00000     0.01998
  51      -0.00000    -0.00000     0.00797    -0.01035    -7.81963    -0.00000
  52      -0.83399     0.16054    -0.00000    -0.00000    -0.00000    -0.00408
  53      -0.10100    -0.00639    -0.00000     0.00000    -0.00000    -0.31650
  54      -0.16517    -0.83074    -0.00000    -0.00000    -0.00000    -0.02895
  55       0.00000     0.00000    -0.02231     0.02896     2.76966     0.00000

           49          50          51          52          53          54  
       ----------- ----------- ----------- ----------- ----------- -----------
   1       0.00000     0.00000    -0.48895    -0.00000     0.00000    -0.00000
   2       0.13086     0.09734     0.00000     0.07282    -0.15785     0.01202
   3      -0.17314     0.31290     0.00000     0.06680     0.01803    -0.16190
   4       0.28268     0.14326     0.00000     0.14294     0.07191     0.06762
   5       0.00000     0.00000    -1.09835     0.00000     0.00000     0.00000
   6       0.01439     0.00911    -0.00000     0.00915     0.00003     0.00314
   7       0.21132    -0.18729     0.00000    -0.00559    -0.03180     0.08920
   8       0.10222     0.18918    -0.00000     0.06517    -0.05751    -0.01498
   9      -0.16155    -0.11082     0.00000    -0.06121    -0.06218    -0.02024
  10       0.00000     0.00000     0.20885    -0.00000    -0.00000    -0.00000
  11      -0.00870     0.01436    -0.00000     0.00311    -0.01373    -0.01032
  12       0.00817     0.00521     0.00000     0.00518    -0.00125     0.00170
  13       0.00419    -0.00764    -0.00000    -0.00206    -0.00307     0.00472
  14      -0.00000    -0.00000    -0.43210     0.00000    -0.00000     0.00000
  15      -0.40580    -0.20755    -0.00000    -0.19121     0.01323    -0.08451
  16       0.08541    -0.14775    -0.00000    -0.02370     0.18867     0.08457
  17       0.16457    -0.34869     0.00000    -0.07769    -0.07462     0.15031
  18       0.00000    -0.00000    -0.01675    -0.00000    -0.00000     0.00000
  19      -0.00000     0.00000     0.00642     0.00000    -0.00000    -0.00000
  20      -0.00000     0.00000    -0.00219     0.00000    -0.00000    -0.00000
  21       0.00692     0.00438    -0.00000     0.02200     0.00007     0.00754
  22       0.00000    -0.00000    -0.00408    -0.00000    -0.00000    -0.00000
  23       0.00000    -0.00000    -0.01523    -0.00000    -0.00000    -0.00000
  24      -0.00013     0.00720    -0.00000     0.01514    -0.01478    -0.01341
  25       0.00622    -0.00460     0.00000     0.00141     0.01252     0.02210
  26       0.00137    -0.00200     0.00000    -0.00109     0.02765     0.00763
  27      -0.00000    -0.00000     0.03721    -0.00000    -0.00000    -0.00000
  28      -0.00000    -0.00000    -0.00438    -0.00000    -0.00000     0.00000
  29       0.00000     0.00000    -0.01286     0.00000     0.00000     0.00000
  30       0.00969     0.00146     0.00000     0.02909    -0.23780     0.02959
  31       0.02151     0.03978     0.00000     0.23237     0.04324    -0.03218
  32       0.04106    -0.03316     0.00000     0.00754    -0.00356     0.25437
  33       0.56405    -0.19463     0.00000     0.30243     0.07650     0.82674
  34       0.21606     0.56732     0.00000     0.84969    -0.00545    -0.27071
  35      -0.07418     0.01499     0.00000    -0.02893     0.88985    -0.04862
  36       0.00000    -0.00000     2.94470     0.00000     0.00000     0.00000
  37       0.00000     0.00000    -0.03437    -0.00000    -0.00000     0.00000
  38       0.00000     0.00000     0.00368    -0.00000     0.00000     0.00000
  39       0.00000    -0.00000     0.01436     0.00000     0.00000    -0.00000
  40       0.00000    -0.00000     0.00138     0.00000    -0.00000    -0.00000
  41       0.00000     0.00000     0.00402    -0.00000    -0.00000    -0.00000
  42       0.05741     0.00901     0.00000    -0.10253     0.84697    -0.01301
  43       0.25072     0.21367    -0.00000    -0.83399    -0.10100    -0.16517
  44       0.20389    -0.23764    -0.00000     0.16054    -0.00639    -0.83074
  45      -0.00000    -0.00000     0.00797    -0.00000    -0.00000    -0.00000
[...]
   7       0.00017     0.00429    -0.00001     0.00000    -0.00000     0.00000
   8      -0.00216     0.00006    -0.00063    -0.00000    -0.00000    -0.00000
   9      -0.00824     0.00037     0.00281     0.00000    -0.00000     0.00000
  10      -0.00039    -0.00954     0.00004    -0.00000     0.00000    -0.00000
  11       0.00481    -0.00014     0.00483     0.00000     0.00000     0.00000
  12      -0.00238     0.00011     0.00233     0.00000     0.00000     0.00000
  13      -0.00011    -0.00275     0.00003     0.00000     0.00000    -0.00000
  14       0.00138    -0.00004     0.00399     0.00000     0.00000     0.00000
  15       0.00037    -0.00002    -0.00040    -0.00000    -0.00000    -0.00000
  16       0.00002     0.00043    -0.00001    -0.00000    -0.00000     0.00000
  17      -0.00022     0.00001    -0.00068    -0.00000    -0.00000    -0.00000
  18      -0.00000     0.00000     0.00000     0.47370    -0.61531     0.90391
  19      -0.00000    -0.00000    -0.00000     1.41972     1.10221     0.05506
  20       0.00000     0.00000     0.00000    -0.56340     0.70804     1.02437
  21      -0.00000    -0.00000    -0.00000    -0.64113     0.81893     0.00065
  22       0.00000     0.00000     0.00000    -0.81678    -0.65537     0.06570
  23       0.00000    -0.00000    -0.00000     0.16743    -0.20362    -0.90456
  24       0.00000     0.00000    -0.00000    -0.33029     0.42903    -0.62945
  25       0.00000     0.00000     0.00000    -0.98992    -0.76853    -0.03834
  26      -0.00000    -0.00000    -0.00000     0.39284    -0.49369    -0.71335
  27      -0.00000     0.00000    -0.00000     0.44704    -0.57101    -0.00045
  28      -0.00000    -0.00000    -0.00000     0.56951     0.45696    -0.04575
  29      -0.00000     0.00000    -0.00000    -0.11674     0.14198     0.62991
  30      -0.00000     0.00000    -0.00000     0.12817    -0.16648     0.24422
  31      -0.00000    -0.00000    -0.00000     0.38413     0.29822     0.01488
  32      -0.00000     0.00000     0.00000    -0.15244     0.19157     0.27677
  33      -0.00000     0.00000    -0.00000    -0.17347     0.22157     0.00018
  34       0.00000     0.00000     0.00000    -0.22099    -0.17732     0.01775
  35       0.00000     0.00000    -0.00000     0.04530    -0.05509    -0.24439
  36       0.17732    -0.00792    -0.54065    -0.00000    -0.00000    -0.00000
  37       0.03134     0.20417     0.00346     0.00000     0.00000     0.00000
  38       2.74720    -0.12430     0.42954     0.00000     0.00000     0.00000
  39      -0.65183     0.05579    -0.93586    -0.00000    -0.00000    -0.00000
  40       0.15996     3.29819     0.05641     0.00000     0.00000    -0.00000
  41       0.13109    -0.03254     2.55837     0.00000     0.00000    -0.00000
  42      -0.03066    -0.75583    -0.01297    -0.00000    -0.00000     0.00000
  43       0.38272     0.03482    -1.60614    -0.00000    -0.00000     0.00000
  44       0.06118     2.07633     0.03545     0.00000     0.00000    -0.00000
  45      -1.04549     0.02989     0.39251    -0.00000     0.00000    -0.00000
  46      -0.08494     0.00379     0.27077    -0.00000     0.00000    -0.00000
  47      -0.01563    -0.09777    -0.00178    -0.00000    -0.00000     0.00000
  48      -1.39214     0.06294    -0.22117    -0.00000    -0.00000    -0.00000
  49       0.33440    -0.02843     0.47046     0.00000     0.00000    -0.00000
  50      -0.08090    -1.66803    -0.02850    -0.00000    -0.00000     0.00000
  51      -0.06156     0.01624    -1.29508    -0.00000    -0.00000     0.00000
  52       0.01573     0.38775     0.00652     0.00000     0.00000     0.00000
  53      -0.19632    -0.01753     0.80741    -0.00000    -0.00000    -0.00000
  54      -0.03072    -1.04460    -0.01794    -0.00000    -0.00000     0.00000
  55       0.52598    -0.01504    -0.20246    -0.00000    -0.00000    -0.00000

           49          50          51          52          53          54  
       ----------- ----------- ----------- ----------- ----------- -----------
   1       0.00000     0.01705     5.66701    -0.00000     0.00000     0.00000
   2       0.00000     0.03484    10.51943    -0.00000     0.00000     0.00000
   3      -0.00000    -0.01912    -5.37252     0.00000    -0.00000    -0.00000
   4       0.00000     0.04934     9.87555    -0.00000     0.00000    -0.00000
   5       0.00000     0.00009     0.13446     0.00000     0.00000    -0.00000
   6       0.00000    -0.00000    -0.00000    -2.74641     0.14267    -1.60097
   7       0.00000    -0.00000     0.00000    -0.15220    -3.17908    -0.02218
   8      -0.00000     0.00000     0.00000     1.60133    -0.05747    -2.74791
   9      -0.00000     0.00000     0.00000    15.17971    -0.78854     8.85407
  10      -0.00000     0.00000    -0.00000     0.84121    17.57111     0.12264
  11      -0.00000     0.00000    -0.00000    -8.85072     0.31762    15.19713
  12      -0.00000     0.00000     0.00000     2.27665    -0.11827     1.32757
  13      -0.00000     0.00000    -0.00000     0.12616     2.63531     0.01839
  14      -0.00000    -0.00000    -0.00000    -1.32743     0.04764     2.27865
  15       0.00000    -0.00000    -0.00000    -0.33225     0.01726    -0.19377
  16       0.00000     0.00000     0.00000    -0.01841    -0.38460    -0.00268
  17       0.00000     0.00000     0.00000     0.19372    -0.00695    -0.33258
  18      -0.04043    -0.14907    -2.01334     0.00000     0.00000     0.00000
  19       1.04569     0.01265    -0.00004     0.00000     0.00000     0.00000
  20      -0.05428     1.56723    -0.00444    -0.00000    -0.00000    -0.00000
  21       0.01449    -0.60554    -2.01205     0.00000     0.00000     0.00000
  22       1.79605     0.02171    -0.00006     0.00000     0.00000    -0.00000
  23       0.02593     0.73919    -2.01586     0.00000     0.00000     0.00000
  24       0.02815     0.07632    -5.21698     0.00000    -0.00000     0.00000
  25      -0.72819    -0.00879     0.00002    -0.00000    -0.00000    -0.00000
  26       0.03780    -1.08888     0.00300     0.00000     0.00000     0.00000
  27      -0.01009     0.39347    -5.21785     0.00000    -0.00000     0.00000
  28      -1.25072    -0.01509     0.00004    -0.00000    -0.00000    -0.00000
  29      -0.01806    -0.54082    -5.21528     0.00000    -0.00000     0.00000
  30      -0.01092    -0.04445    -1.19818     0.00000    -0.00000     0.00000
  31       0.28253     0.00341    -0.00001     0.00000     0.00000     0.00000
  32      -0.01466     0.42223    -0.00132     0.00000    -0.00000     0.00000
  33       0.00392    -0.16743    -1.19780     0.00000    -0.00000     0.00000
  34       0.48526     0.00585    -0.00002     0.00000    -0.00000     0.00000
  35       0.00701     0.19485    -1.19893     0.00000    -0.00000     0.00000
  36       0.00000    -0.00000    -0.00000    -6.97543     0.36235    -4.06921
  37       0.00000     0.00000     0.00000    -0.38655    -8.07433    -0.05636
  38      -0.00000    -0.00000     0.00000     4.06771    -0.14598    -6.98421
  39       0.00000     0.00000    -0.00000    -6.97561     0.36237    -4.06926
  40       0.00000     0.00000    -0.00000     0.00004     0.00070     0.00001
  41      -0.00000    -0.00000    -0.00000    -6.97544     0.36235    -4.06879
  42       0.00000     0.00000     0.00000    -0.38656    -8.07454    -0.05637
  43       0.00000     0.00000     0.00000     4.06721    -0.14595    -6.98448
  44      -0.00000    -0.00000     0.00000    -0.38654    -8.07394    -0.05636
  45      -0.00000     0.00000     0.00000     4.06691    -0.14594    -6.98421
  46       0.00000    -0.00000    -0.00000    -4.11819     0.21393    -2.40169
  47      -0.00000    -0.00000     0.00000    -0.22822    -4.76697    -0.03327
  48       0.00000     0.00000     0.00000     2.40124    -0.08617    -4.12208
  49      -0.00000    -0.00000    -0.00000    -4.11822     0.21393    -2.40174
  50      -0.00000    -0.00000     0.00000     0.00000     0.00009     0.00001
  51       0.00000     0.00000    -0.00000    -4.11820     0.21393    -2.40129
  52       0.00000    -0.00000     0.00000    -0.22822    -4.76700    -0.03327
  53      -0.00000    -0.00000     0.00000     2.40118    -0.08617    -4.12234
  54       0.00000     0.00000     0.00000    -0.22821    -4.76692    -0.03326
  55       0.00000     0.00000     0.00000     2.40114    -0.08617    -4.12208

           55  
       -----------
   1       2.56575
   2       7.83933
   3       0.09667
   4       8.94273
   5       0.59076
   6      -0.00000
   7      -0.00000
   8      -0.00000
   9       0.00000
  10       0.00000
  11       0.00000
  12       0.00000
  13       0.00000
  14       0.00000
  15      -0.00000
  16      -0.00000
  17      -0.00000
  18      -3.38673
  19       0.00001
  20       0.00075
  21      -3.38695
  22       0.00001
  23      -3.38631
  24      -4.05933
  25      -0.00000
  26      -0.00044
  27      -4.05920
  28      -0.00001
  29      -4.05958
  30      -1.44075
  31       0.00000
  32       0.00016
  33      -1.44080
  34       0.00000
  35      -1.44066
  36      -0.00000
  37      -0.00000
  38      -0.00000
  39      -0.00000
  40      -0.00000
  41      -0.00000
  42      -0.00000
  43      -0.00000
  44      -0.00000
  45      -0.00000
  46      -0.00000
  47      -0.00000
  48      -0.00000
  49      -0.00000
  50       0.00000
  51      -0.00000
  52      -0.00000
  53      -0.00000
  54      -0.00000
  55      -0.00000
  int_init: cando_txs set to always be  F
                                NWChem TDDFT Module
                                -------------------


            General Information
            -------------------
           No. of orbitals :     110
            Alpha orbitals :      55
             Beta orbitals :      55
        Alpha frozen cores :       0
         Beta frozen cores :       0
     Alpha frozen virtuals :       0
      Beta frozen virtuals :       0
         Spin multiplicity :       2
    Number of AO functions :      55
        Use of symmetry is : off
      Symmetry adaption is : off
         Schwarz screening :  0.10D-07

              XC Information
              --------------
              Hartree-Fock (Exact) Exchange   1.00          
              LC-wPBE(h)Exchange Functional   1.00          
     Perdew 1991 LDA Correlation Functional   1.00 local    
    PerdewBurkeErnz. Correlation Functional   1.00 non-local
           Alpha           :  0.00
           Beta            :  1.00
           Gamma           :  0.42

             TDDFT Information
             -----------------
          Calculation type : TDDFT             
         Wavefunction type : Unrestricted
          No. of electrons :       9
           Alpha electrons :       5
            Beta electrons :       4
              No. of roots :       5
          Max subspacesize :    5000
            Max iterations :     100
               Target root :       1
           Target symmetry : none
      Symmetry restriction : off
                 Algorithm : Optimal
        Davidson threshold :  0.10D-03

            Memory Information
            ------------------
          Available GA space size is       52428793950 doubles
          Available MA space size is        4194412372 doubles
          Length of a trial vector is          250     204
          Algorithm : Incore multiple tensor contraction
          Estimated peak GA usage is           9592740 doubles
          Estimated peak MA usage is             18000 doubles

    5 smallest eigenvalue differences (eV) 
--------------------------------------------------------
  No. Spin  Occ  Vir  Irrep   E(Occ)    E(Vir)   E(Diff)
--------------------------------------------------------
    1    2    4    5 a        -0.580    -0.149    11.725
    2    2    3    5 a        -0.580    -0.149    11.725
    3    2    4    6 a        -0.580     0.153    19.945
    4    2    3    6 a        -0.580     0.153    19.945
    5    1    5    6 a        -0.609     0.149    20.633
--------------------------------------------------------

  Entering Davidson iterations
  Unrestricted

  Iter   NTrls   NConv    DeltaV     DeltaE      Time   
  ----  ------  ------  ---------  ---------  --------- 
    1      5       0     0.25E+00   0.10+100        1.3
    2     15       0     0.88E-01   0.19E-01        2.2
 ------------------------------------------------------------------------
 tddft_diagon: negative excitation energy                   0
 ------------------------------------------------------------------------
 ------------------------------------------------------------------------
 tddft_diagon: negative excitation energy                   0
 ------------------------------------------------------------------------
 ------------------------------------------------------------------------
  current input line : 
     0: 
 ------------------------------------------------------------------------
 ------------------------------------------------------------------------
 This type of error is most commonly associated with calculations not reaching convergence criteria
 ------------------------------------------------------------------------
 For more information see the NWChem manual at https://nwchemgit.github.io


 For further details see manual section:                                                                                                                                                                                                                                                                
 tddft_diagon: negative excitation energy                   0
 ------------------------------------------------------------------------
 ------------------------------------------------------------------------
  current input line : 
     0: 
 ------------------------------------------------------------------------
 ------------------------------------------------------------------------
 This type of error is most commonly associated with calculations not reaching convergence criteria
 ------------------------------------------------------------------------
 For more information see the NWChem manual at https://nwchemgit.github.io


 For further details see manual section:                                                                                                                                                                                                                                                                
 tddft_diagon: negative excitation energy                   0
 ------------------------------------------------------------------------
 ------------------------------------------------------------------------
  current input line : 
     0: 
 ------------------------------------------------------------------------
 ------------------------------------------------------------------------
 This type of error is most commonly associated with calculations not reaching convergence criteria
 ------------------------------------------------------------------------
 For more information see the NWChem manual at https://nwchemgit.github.io


 For further details see manual section:                                                                                                                                                                                                                                                                
 tddft_diagon: negative excitation energy                   0
 ------------------------------------------------------------------------
 ------------------------------------------------------------------------
  current input line : 
     0: 
 ------------------------------------------------------------------------
 ------------------------------------------------------------------------
 This type of error is most commonly associated with calculations not reaching convergence criteria
 ------------------------------------------------------------------------
 For more information see the NWChem manual at https://nwchemgit.github.io


 For further details see manual section:                                                                                                                                                                                                                                                                
 tddft_diagon: negative excitation energy                   0
 ------------------------------------------------------------------------
 ------------------------------------------------------------------------
  current input line : 
     0: 
 ------------------------------------------------------------------------
 ------------------------------------------------------------------------
 This type of error is most commonly associated with calculations not reaching convergence criteria
 ------------------------------------------------------------------------
 For more information see the NWChem manual at https://nwchemgit.github.io


 For further details see manual section:                                                                                                                                                                                                                                                                
 tddft_diagon: negative excitation energy                   0
 ------------------------------------------------------------------------
 ------------------------------------------------------------------------
  current input line : 
     0: 
 ------------------------------------------------------------------------
 ------------------------------------------------------------------------
 This type of error is most commonly associated with calculations not reaching convergence criteria
 ------------------------------------------------------------------------
 For more information see the NWChem manual at https://nwchemgit.github.io


 For further details see manual section:                                                                                                                                                                                                                                                                
 tddft_diagon: negative excitation energy                   0
 ------------------------------------------------------------------------
 ------------------------------------------------------------------------
  current input line : 
     0: 
 ------------------------------------------------------------------------
 ------------------------------------------------------------------------
 This type of error is most commonly associated with calculations not reaching convergence criteria
 ------------------------------------------------------------------------
 For more information see the NWChem manual at https://nwchemgit.github.io


 For further details see manual section:                                                                                                                                                                                                                                                                
  current input line : 
    23:  task tddft energy
 ------------------------------------------------------------------------
 ------------------------------------------------------------------------
 This type of error is most commonly associated with calculations not reaching convergence criteria
 ------------------------------------------------------------------------
 For more information see the NWChem manual at https://nwchemgit.github.io


 For further details see manual section:                                                                                                                                                                                                                                                                
