 argument  1 = /home/aditisingh4812/nw_chem/nwchem-run/nwchem-run/tddft/open/open_atom/geom-MOL/ga.nw
                                         
                                         


             Northwest Computational Chemistry Package (NWChem) 7.2.3
             --------------------------------------------------------


                    Environmental Molecular Sciences Laboratory
                       Pacific Northwest National Laboratory
                                Richland, WA 99352

                              Copyright (c) 1994-2022
                       Pacific Northwest National Laboratory
                            Battelle Memorial Institute

             NWChem is an open-source computational chemistry package
                        distributed under the terms of the
                      Educational Community License (ECL) 2.0
             A copy of the license is included with this distribution
                              in the LICENSE.TXT file

                                  ACKNOWLEDGMENT
                                  --------------

            This software and its documentation were developed at the
            EMSL at Pacific Northwest National Laboratory, a multiprogram
            national laboratory, operated for the U.S. Department of Energy
            by Battelle under Contract Number DE-AC05-76RL01830. Support
            for this work was provided by the Department of Energy Office
            of Biological and Environmental Research, Office of Basic
            Energy Sciences, and the Office of Advanced Scientific Computing.


           Job information
           ---------------

    hostname        = p17
    program         = /home/aditisingh4812/nw_chem/nwchem-7.2.3-release.revision-d690e065-srconly.2024-08-27/nwchem-7.2.3/bin/LINUX64/nwchem
    date            = Thu May  8 11:50:08 2025

    compiled        = Mon_Apr_07_18:51:54_2025
    source          = /home/aditisingh4812/nw_chem/nwchem-7.2.3-release.revision-d690e065-srconly.2024-08-27/nwchem-7.2.3
    nwchem branch   = 7.2.3
    nwchem revision = d690e065
    ga revision     = 5.8.0
    use scalapack   = F
    input           = /home/aditisingh4812/nw_chem/nwchem-run/nwchem-run/tddft/open/open_atom/geom-MOL/ga.nw
    prefix          = ga.
    data base       = ./ga.db
    status          = startup
    nproc           =        8
    time left       =     -1s



           Memory information
           ------------------

    heap     = 2621439998 doubles =  20000.0 Mbytes
    stack    = 2621439995 doubles =  20000.0 Mbytes
    global   = 6553600000 doubles =  50000.0 Mbytes (distinct from heap & stack)
    total    = ********** doubles =  90000.0 Mbytes
    verify   = yes
    hardfail = no 


           Directory information
           ---------------------

  0 permanent = .
  0 scratch   = .




                                NWChem Input Module
                                -------------------



 Scaling coordinates for geometry "geometry" by  1.889725989
 (inverse scale =  0.529177249)



                             Geometry "geometry" -> ""
                             -------------------------

 Output coordinates in angstroms (scale by  1.889725989 to convert to a.u.)

  No.       Tag          Charge          X              Y              Z
 ---- ---------------- ---------- -------------- -------------- --------------
    1 Ga                  31.0000     0.00000000     0.00000000     0.00000000

      Atomic Mass 
      ----------- 

      Ga                68.925700


 Effective nuclear repulsion energy (a.u.)       0.0000000000

            Nuclear Dipole moment (a.u.) 
            ----------------------------
        X                 Y               Z
 ---------------- ---------------- ----------------
     0.0000000000     0.0000000000     0.0000000000


            XYZ format geometry
            -------------------
     1
 geometry
 Ga                    0.00000000     0.00000000     0.00000000



 Summary of "ao basis" -> "" (cartesian)
 ------------------------------------------------------------------------------
       Tag                 Description            Shells   Functions and Types
 ---------------- ------------------------------  ------  ---------------------
 *                        aug-cc-pVTZ                 on all atoms 


  pbe96 is a nonlocal functional; adding pw91lda local functional. 

                                 NWChem DFT Module
                                 -----------------


                      Basis "ao basis" -> "ao basis" (cartesian)
                      -----
  Ga (Gallium)
  ------------
            Exponent  Coefficients 
       -------------- ---------------------------------------------------------
  1 S  6.55815730E+06  0.000008
  1 S  9.82025340E+05  0.000062
  1 S  2.23467690E+05  0.000327
  1 S  6.32882910E+04  0.001379
  1 S  2.06429400E+04  0.004999
  1 S  7.45052240E+03  0.016061
  1 S  2.90507440E+03  0.046012
  1 S  1.20421000E+03  0.115222
  1 S  5.24304540E+02  0.237392
  1 S  2.37465630E+02  0.353199
  1 S  1.10578660E+02  0.291550
  1 S  5.13746240E+01  0.081213
  1 S  2.44408460E+01  0.000766
  1 S  1.17685910E+01  0.001612
  1 S  5.34211900E+00 -0.000753
  1 S  2.49503600E+00  0.000313
  1 S  1.09877300E+00 -0.000131
  1 S  2.60180000E-01  0.000051

  2 S  6.55815730E+06 -0.000003
  2 S  9.82025340E+05 -0.000019
  2 S  2.23467690E+05 -0.000101
  2 S  6.32882910E+04 -0.000428
  2 S  2.06429400E+04 -0.001558
  2 S  7.45052240E+03 -0.005047
  2 S  2.90507440E+03 -0.014806
  2 S  1.20421000E+03 -0.038948
  2 S  5.24304540E+02 -0.089683
  2 S  2.37465630E+02 -0.166408
  2 S  1.10578660E+02 -0.200401
  2 S  5.13746240E+01  0.011494
  2 S  2.44408460E+01  0.495813
  2 S  1.17685910E+01  0.529555
  2 S  5.34211900E+00  0.111019
  2 S  2.49503600E+00 -0.000700
  2 S  1.09877300E+00  0.002228
  2 S  2.60180000E-01 -0.000501

  3 S  6.55815730E+06  0.000001
  3 S  9.82025340E+05  0.000007
  3 S  2.23467690E+05  0.000039
  3 S  6.32882910E+04  0.000163
  3 S  2.06429400E+04  0.000594
  3 S  7.45052240E+03  0.001929
  3 S  2.90507440E+03  0.005669
  3 S  1.20421000E+03  0.015028
  3 S  5.24304540E+02  0.035022
  3 S  2.37465630E+02  0.067114
  3 S  1.10578660E+02  0.085016
  3 S  5.13746240E+01 -0.004721
  3 S  2.44408460E+01 -0.301674
  3 S  1.17685910E+01 -0.482549
  3 S  5.34211900E+00  0.089170
  3 S  2.49503600E+00  0.728783
  3 S  1.09877300E+00  0.428854
  3 S  2.60180000E-01  0.020725

  4 S  6.55815730E+06  0.000000
  4 S  9.82025340E+05  0.000002
  4 S  2.23467690E+05  0.000009
  4 S  6.32882910E+04  0.000038
  4 S  2.06429400E+04  0.000138
  4 S  7.45052240E+03  0.000449
  4 S  2.90507440E+03  0.001319
  4 S  1.20421000E+03  0.003502
  4 S  5.24304540E+02  0.008167
  4 S  2.37465630E+02  0.015734
  4 S  1.10578660E+02  0.020028
  4 S  5.13746240E+01 -0.001014
  4 S  2.44408460E+01 -0.075016
  4 S  1.17685910E+01 -0.125798
  4 S  5.34211900E+00  0.030086
  4 S  2.49503600E+00  0.248817
  4 S  1.09877300E+00  0.284371
  4 S  2.60180000E-01 -0.311059

  5 S  1.27079000E-01  1.000000

  6 S  5.44080000E-02  1.000000

  7 S  1.43980000E-02  1.000000

  8 P  8.05016740E+03  0.000317
  8 P  1.90753610E+03  0.002765
  8 P  6.18627460E+02  0.015120
  8 P  2.35324170E+02  0.059958
  8 P  9.88996460E+01  0.173312
  8 P  4.42482150E+01  0.341082
  8 P  2.06174290E+01  0.389697
  8 P  9.78051600E+00  0.183982
  8 P  4.44123800E+00  0.021890
  8 P  1.96404500E+00  0.001161
  8 P  8.33578000E-01  0.000274

  9 P  8.05016740E+03 -0.000120
  9 P  1.90753610E+03 -0.001049
  9 P  6.18627460E+02 -0.005810
  9 P  2.35324170E+02 -0.023435
  9 P  9.88996460E+01 -0.070827
  9 P  4.42482150E+01 -0.146551
  9 P  2.06174290E+01 -0.176966
  9 P  9.78051600E+00  0.036382
  9 P  4.44123800E+00  0.423285
  9 P  1.96404500E+00  0.495259
  9 P  8.33578000E-01  0.179743

 10 P  8.05016740E+03  0.000020
 10 P  1.90753610E+03  0.000169
 10 P  6.18627460E+02  0.000967
 10 P  2.35324170E+02  0.003780
 10 P  9.88996460E+01  0.011908
 10 P  4.42482150E+01  0.023569
 10 P  2.06174290E+01  0.031423
 10 P  9.78051600E+00 -0.013619
 10 P  4.44123800E+00 -0.073400
 10 P  1.96404500E+00 -0.126479
 10 P  8.33578000E-01  0.015858

 11 P  1.93445000E-01  1.000000

 12 P  5.61170000E-02  1.000000

 13 P  1.93000000E-02  1.000000

 14 D  2.44147410E+02  0.002027
 14 D  7.30675950E+01  0.016509
 14 D  2.75920810E+01  0.070382
 14 D  1.15465180E+01  0.191143
 14 D  5.04862800E+00  0.325409
 14 D  2.17846500E+00  0.367820
 14 D  9.00253000E-01  0.274469

 15 D  3.37327000E-01  1.000000

 16 D  1.16900000E-01  1.000000

 17 D  3.87000000E-02  1.000000

 18 F  2.88100000E-01  1.000000

 19 F  9.80000000E-02  1.000000



 Summary of "ao basis" -> "ao basis" (cartesian)
 ------------------------------------------------------------------------------
       Tag                 Description            Shells   Functions and Types
 ---------------- ------------------------------  ------  ---------------------
 Ga                       aug-cc-pVTZ               19       69   7s6p4d2f




 Summary of "ao basis" -> "ao basis" (cartesian)
 ------------------------------------------------------------------------------
       Tag                 Description            Shells   Functions and Types
 ---------------- ------------------------------  ------  ---------------------
 Ga                       aug-cc-pVTZ               19       69   7s6p4d2f




                         Geometry "geometry" -> "geometry"
                         ---------------------------------

 Output coordinates in angstroms (scale by  1.889725989 to convert to a.u.)

  No.       Tag          Charge          X              Y              Z
 ---- ---------------- ---------- -------------- -------------- --------------
    1 Ga                  31.0000     0.00000000     0.00000000     0.00000000

      Atomic Mass 
      ----------- 

      Ga                68.925700


 Effective nuclear repulsion energy (a.u.)       0.0000000000

            Nuclear Dipole moment (a.u.) 
            ----------------------------
        X                 Y               Z
 ---------------- ---------------- ----------------
     0.0000000000     0.0000000000     0.0000000000


                      Basis "ao basis" -> "ao basis" (cartesian)
                      -----
  Ga (Gallium)
  ------------
            Exponent  Coefficients 
       -------------- ---------------------------------------------------------
  1 S  6.55815730E+06  0.738901
  1 S  9.82025340E+05  1.382905
  1 S  2.23467690E+05  2.395349
  1 S  6.32882910E+04  3.922768
  1 S  2.06429400E+04  6.136175
  1 S  7.45052240E+03  9.179288
  1 S  2.90507440E+03 12.976356
  1 S  1.20421000E+03 16.787016
  1 S  5.24304540E+02 18.538043
  1 S  2.37465630E+02 15.227542
  1 S  1.10578660E+02  7.085597
  1 S  5.13746240E+01  1.110699
  1 S  2.44408460E+01  0.005997
  1 S  1.17685910E+01  0.007302
  1 S  5.34211900E+00 -0.001886
  1 S  2.49503600E+00  0.000443
  1 S  1.09877300E+00 -0.000100
  1 S  2.60180000E-01  0.000013

  2 S  6.55815730E+06 -0.230913
  2 S  9.82025340E+05 -0.429113
  2 S  2.23467690E+05 -0.742799
  2 S  6.32882910E+04 -1.217475
  2 S  2.06429400E+04 -1.912600
  2 S  7.45052240E+03 -2.884610
  2 S  2.90507440E+03 -4.175575
  2 S  1.20421000E+03 -5.674615
  2 S  5.24304540E+02 -7.003597
  2 S  2.37465630E+02 -7.174573
  2 S  1.10578660E+02 -4.870524
  2 S  5.13746240E+01  0.157205
  2 S  2.44408460E+01  3.884434
  2 S  1.17685910E+01  2.398152
  2 S  5.34211900E+00  0.278037
  2 S  2.49503600E+00 -0.000990
  2 S  1.09877300E+00  0.001704
  2 S  2.60180000E-01 -0.000130

  3 S  6.55815730E+06  0.082889
  3 S  9.82025340E+05  0.164056
  3 S  2.23467690E+05  0.282677
  3 S  6.32882910E+04  0.463070
  3 S  2.06429400E+04  0.727488
  3 S  7.45052240E+03  1.099476
  3 S  2.90507440E+03  1.594171
  3 S  1.20421000E+03  2.183242
  3 S  5.24304540E+02  2.727090
  3 S  2.37465630E+02  2.885219
  3 S  1.10578660E+02  2.060252
  3 S  5.13746240E+01 -0.064385
  3 S  2.44408460E+01 -2.356638
  3 S  1.17685910E+01 -2.178979
  3 S  5.34211900E+00  0.222674
  3 S  2.49503600E+00  1.028192
  3 S  1.09877300E+00  0.327084
  3 S  2.60180000E-01  0.005366

  4 S  6.55815730E+06  0.049777
  4 S  9.82025340E+05  0.101848
  4 S  2.23467690E+05  0.177650
  4 S  6.32882910E+04  0.291197
  4 S  2.06429400E+04  0.457086
  4 S  7.45052240E+03  0.691354
  4 S  2.90507440E+03  1.002208
  4 S  1.20421000E+03  1.374689
  4 S  5.24304540E+02  1.718610
  4 S  2.37465630E+02  1.827870
  4 S  1.10578660E+02  1.311628
  4 S  5.13746240E+01 -0.037354
  4 S  2.44408460E+01 -1.583629
  4 S  1.17685910E+01 -1.535070
  4 S  5.34211900E+00  0.203028
  4 S  2.49503600E+00  0.948634
  4 S  1.09877300E+00  0.586107
  4 S  2.60180000E-01 -0.217626

  5 S  1.27079000E-01  0.151693

  6 S  5.44080000E-02  0.080289

  7 S  1.43980000E-02  0.029624

  8 P  8.05016740E+03 34.444394
  8 P  1.90753610E+03 49.681517
  8 P  6.18627460E+02 66.495146
  8 P  2.35324170E+02 78.772142
  8 P  9.88996460E+01 77.048152
  8 P  4.42482150E+01 55.484116
  8 P  2.06174290E+01 24.403945
  8 P  9.78051600E+00  4.535937
  8 P  4.44123800E+00  0.201168
  8 P  1.96404500E+00  0.003847
  8 P  8.33578000E-01  0.000311

  9 P  8.05016740E+03-13.096301
  9 P  1.90753610E+03-18.883222
  9 P  6.18627460E+02-25.592013
  9 P  2.35324170E+02-30.836546
  9 P  9.88996460E+01-31.536910
  9 P  4.42482150E+01-23.877324
  9 P  2.06174290E+01-11.099664
  9 P  9.78051600E+00  0.898394
  9 P  4.44123800E+00  3.896185
  9 P  1.96404500E+00  1.643986
  9 P  8.33578000E-01  0.204391

 10 P  8.05016740E+03 11.994591
 10 P  1.90753610E+03 16.746341
 10 P  6.18627460E+02 23.459700
 10 P  2.35324170E+02 27.399322
 10 P  9.88996460E+01 29.210491
 10 P  4.42482150E+01 21.155130
 10 P  2.06174290E+01 10.857860
 10 P  9.78051600E+00 -1.852637
 10 P  4.44123800E+00 -3.722007
 10 P  1.96404500E+00 -2.312892
 10 P  8.33578000E-01  0.099341

 11 P  1.93445000E-01  0.182868

 12 P  5.61170000E-02  0.038932

 13 P  1.93000000E-02  0.010254

 14 D  2.44147410E+02 52.120896
 14 D  7.30675950E+01 51.404465
 14 D  2.75920810E+01 39.866046
 14 D  1.15465180E+01 23.572987
 14 D  5.04862800E+00  9.435179
 14 D  2.17846500E+00  2.449998
 14 D  9.00253000E-01  0.389401

 15 D  3.37327000E-01  0.245753

 16 D  1.16900000E-01  0.038467

 17 D  3.87000000E-02  0.005558

 18 F  2.88100000E-01  0.089521

 19 F  9.80000000E-02  0.007911



    Basis function labels
    ---------------------
       No.  Atm El Type
       ---  --- -- ----
        1    1 Ga s          
        2    1 Ga s          
        3    1 Ga s          
        4    1 Ga s          
        5    1 Ga s          
        6    1 Ga s          
        7    1 Ga s          
        8    1 Ga px         
        9    1 Ga py         
       10    1 Ga pz         
       11    1 Ga px         
       12    1 Ga py         
       13    1 Ga pz         
       14    1 Ga px         
       15    1 Ga py         
       16    1 Ga pz         
       17    1 Ga px         
       18    1 Ga py         
       19    1 Ga pz         
       20    1 Ga px         
       21    1 Ga py         
       22    1 Ga pz         
       23    1 Ga px         
       24    1 Ga py         
       25    1 Ga pz         
       26    1 Ga dxx        
       27    1 Ga dxy        
       28    1 Ga dxz        
       29    1 Ga dyy        
       30    1 Ga dyz        
       31    1 Ga dzz        
       32    1 Ga dxx        
       33    1 Ga dxy        
       34    1 Ga dxz        
       35    1 Ga dyy        
       36    1 Ga dyz        
       37    1 Ga dzz        
       38    1 Ga dxx        
       39    1 Ga dxy        
       40    1 Ga dxz        
       41    1 Ga dyy        
       42    1 Ga dyz        
       43    1 Ga dzz        
       44    1 Ga dxx        
       45    1 Ga dxy        
       46    1 Ga dxz        
       47    1 Ga dyy        
       48    1 Ga dyz        
       49    1 Ga dzz        
       50    1 Ga fxxx       
       51    1 Ga fxxy       
       52    1 Ga fxxz       
       53    1 Ga fxyy       
       54    1 Ga fxyz       
       55    1 Ga fxzz       
       56    1 Ga fyyy       
       57    1 Ga fyyz       
       58    1 Ga fyzz       
       59    1 Ga fzzz       
       60    1 Ga fxxx       
       61    1 Ga fxxy       
       62    1 Ga fxxz       
       63    1 Ga fxyy       
       64    1 Ga fxyz       
       65    1 Ga fxzz       
       66    1 Ga fyyy       
       67    1 Ga fyyz       
       68    1 Ga fyzz       
       69    1 Ga fzzz       
  int_init: cando_txs set to always be  F

 Schwarz integral screening summary 
 ---------------------------------- 

        No. of atom pairs =       1
       No. of shell pairs =     190

 Atomic screening 

   value      no.     value      no.     value      no.     value      no.   
  -------- ------    -------- ------    -------- ------    -------- ------   
  0.00D+00      0    1.00D-13      0    1.00D-12      0    1.00D-11      0
  1.00D-10      0    1.00D-09      0    1.00D-08      0    1.00D-07      0
  1.00D-06      0    1.00D-05      0    1.00D-04      0    1.00D-03      0
  1.00D-02      0    1.00D-01      0    1.00D+00      0    1.00D+01      1


 Shell screening 

   value      no.     value      no.     value      no.     value      no.   
  -------- ------    -------- ------    -------- ------    -------- ------   
  0.00D+00      0    1.00D-13      0    1.00D-12      0    1.00D-11      0
  1.00D-10      0    1.00D-09      0    1.00D-08      0    1.00D-07      0
  1.00D-06      0    1.00D-05      3    1.00D-04      6    1.00D-03      9
  1.00D-02     22    1.00D-01     75    1.00D+00     73    1.00D+01      2


  Caching 1-el integrals 
  atom                     1  - neighbor  & S                     1   10.000000000000000       exp AB    1.4398000000000011E-002   1.4398000000000011E-002
 zmins =     0.014398000    0.014398000 lprod =   0 range =        25.80 acc   0.10D-06
 sh     0.000000000
  Center:                     1  Radial Pts. & Wghts. 
    1        0.000002400           4.1482870E-17
    2        0.000019202           1.0619668E-14
    3        0.000064806           2.7217416E-13
    4        0.000153615           2.7187436E-12
    5        0.000300033           1.6205680E-11
    6        0.000518465           6.9685981E-11
    7        0.000823322           2.3919885E-10
    8        0.001229019           6.9622087E-10
    9        0.001749980           1.7866294E-09
   10        0.002400637           4.1512452E-09
   11        0.003195437           8.9006653E-09
   12        0.004148840           1.7858872E-08
   13        0.005275327           3.3891930E-08
   14        0.006589399           6.1339946E-08
   15        0.008105586           1.0657244E-07
   16        0.009838446           1.7868922E-07
   17        0.011802573           2.9039116E-07
   18        0.014012601           4.5904717E-07
   19        0.016483208           7.0798648E-07
   20        0.019229124           1.0680474E-06
   21        0.022265135           1.5794168E-06
   22        0.025606089           2.2937972E-06
   23        0.029266905           3.2769415E-06
   24        0.033262575           4.6115991E-06
   25        0.037608178           6.4009205E-06
   26        0.042318882           8.7723706E-06
   27        0.047409957           1.1882208E-05
   28        0.052896778           1.5920591E-05
   29        0.058794840           2.1117368E-05
   30        0.065119761           2.7748642E-05
   31        0.071887297           3.6144162E-05
   32        0.079113352           4.6695648E-05
   33        0.086813984           5.9866131E-05
   34        0.095005422           7.6200406E-05
   35        0.103704074           9.6336723E-05
   36        0.112926542           1.2101982E-04
   37        0.122689634           1.5111543E-04
   38        0.133010377           1.8762644E-04
   39        0.143906029           2.3171080E-04
   40        0.155394102           2.8470142E-04
   41        0.167492367           3.4812825E-04
   42        0.180218879           4.2374259E-04
   43        0.193591988           5.1354421E-04
   44        0.207630362           6.1981114E-04
   45        0.222353001           7.4513271E-04
   46        0.237779261           8.9244599E-04
   47        0.253928872           1.0650761E-03
   48        0.270821962           1.2667805E-03
   49        0.288479077           1.5017985E-03
   50        0.306921208           1.7749048E-03
   51        0.326169814           2.0914697E-03
   52        0.346246850           2.4575252E-03
   53        0.367174796           2.8798371E-03
   54        0.388976684           3.3659865E-03
   55        0.411676132           3.9244578E-03
   56        0.435297375           4.5647368E-03
   57        0.459865300           5.2974196E-03
   58        0.485405484           6.1343320E-03
   59        0.511944234           7.0886620E-03
   60        0.539508624           8.1751066E-03
   61        0.568126543           9.4100337E-03
   62        0.597826740           1.0811662E-02
   63        0.628638873           1.2400261E-02
   64        0.660593560           1.4198369E-02
   65        0.693722437           1.6231043E-02
   66        0.728058218           1.8526125E-02
   67        0.763634754           2.1114551E-02
   68        0.800487103           2.4030682E-02
   69        0.838651603           2.7312682E-02
   70        0.878165945           3.1002935E-02
   71        0.919069258           3.5148510E-02
   72        0.961402198           3.9801683E-02
   73        1.005207038           4.5020516E-02
   74        1.050527771           5.0869509E-02
   75        1.097410219           5.7420331E-02
   76        1.145902152           6.4752635E-02
   77        1.196053406           7.2954975E-02
   78        1.247916028           8.2125843E-02
   79        1.301544414           9.2374828E-02
   80        1.356995472           1.0382393E-01
   81        1.414328790           1.1660903E-01
   82        1.473606822           1.3088160E-01
   83        1.534895088           1.4681053E-01
   84        1.598262396           1.6458435E-01
   85        1.663781071           1.8441365E-01
   86        1.731527221           2.0653385E-01
   87        1.801581017           2.3120838E-01
   88        1.874026999           2.5873233E-01
   89        1.948954416           2.8943657E-01
   90        2.026457595           3.2369255E-01
   91        2.106636351           3.6191776E-01
   92        2.189596427           4.0458205E-01
   93        2.275449998           4.5221495E-01
   94        2.364316209           5.0541406E-01
   95        2.456321782           5.6485494E-01
   96        2.551601687           6.3130247E-01
   97        2.650299887           7.0562420E-01
   98        2.752570168           7.8880595E-01
   99        2.858577074           8.8197015E-01
  100        2.968496939           9.8639741E-01
  101        3.082519064           1.1035520E+00
  102        3.200847031           1.2351123E+00
  103        3.323700193           1.3830066E+00
  104        3.451315358           1.5494562E+00
  105        3.583948711           1.7370272E+00
  106        3.721877998           1.9486929E+00
  107        3.865405034           2.1879090E+00
  108        4.014858581           2.4587055E+00
  109        4.170597668           2.7657991E+00
  110        4.333015445           3.1147307E+00
  111        4.502543658           3.5120369E+00
  112        4.679657894           3.9654615E+00
  113        4.864883741           4.4842222E+00
  114        5.058804063           5.0793455E+00
  115        5.262067662           5.7640931E+00
  116        5.475399628           6.5545075E+00
  117        5.699613807           7.4701176E+00
  118        5.935627924           8.5348576E+00
  119        6.184482068           9.7782779E+00
  120        6.447361482           1.1237157E+01
  121        6.725624916           1.2957676E+01
  122        7.020840256           1.4998377E+01
  123        7.334829801           1.7434275E+01
  124        7.669728489           2.0362624E+01
  125        8.028059797           2.3911175E+01
  126        8.412836173           2.8250225E+01
  127        8.827694162           3.3610573E+01
  128        9.277079703           4.0310951E+01
  129        9.766507745           4.8801120E+01
  130       10.302935092           5.9731762E+01
  131       10.895311456           7.4072135E+01
  132       11.555421846           9.3317000E+01
  133       12.299227190           1.1987009E+02
  134       13.149104881           1.5780151E+02
  135       14.137828174           2.1446751E+02
  136       15.316206637           3.0434765E+02
  137       16.769361060           4.5947408E+02
  138       18.656863796           7.6393334E+02
  139       21.336960834           1.5097592E+03
  140       25.952786700           4.4996217E+03
     irreducible set of Lebedev Angular points ;
  0.009523809523810  1.000000000000000  0.000000000000000  0.000000000000000
  0.032142857142857  0.577350269189626  0.577350269189626  0.577350269189626
  0.028571428571429  0.459700843380983  0.000000000000000  0.888073833977115
   total no. of   reducible points:  38; test:  1.00000000
  0.012698412698413  1.000000000000000  0.000000000000000  0.000000000000000
  0.022574955908289  0.707106781186547  0.707106781186547  0.000000000000000
  0.021093750000000  0.577350269189626  0.577350269189626  0.577350269189626
  0.020173335537919  0.301511344577764  0.301511344577764  0.904534033733291
   total no. of   reducible points:  50; test:  1.00000000
  0.000513067179734  1.000000000000000  0.000000000000000  0.000000000000000
  0.016604069565742  0.707106781186547  0.707106781186547  0.000000000000000
 -0.029586038961039  0.577350269189626  0.577350269189626  0.577350269189626
  0.026576207082159  0.480384461415261  0.480384461415261  0.733799385705343
  0.016522170993716  0.320772648980776  0.000000000000000  0.947156221362588
   total no. of   reducible points:  74; test:  1.00000000
  0.011544011544012  1.000000000000000  0.000000000000000  0.000000000000000
  0.011943909085856  0.577350269189626  0.577350269189626  0.577350269189626
  0.011110555710603  0.369602846454150  0.369602846454150  0.852518311701268
  0.011876501294537  0.694354006602666  0.694354006602666  0.189063552885395
  0.011812303746904  0.374243039090341  0.000000000000000  0.927330657151172
   total no. of   reducible points:  86; test:  1.00000000
  0.003828270494937  1.000000000000000  0.000000000000000  0.000000000000000
  0.009793737512488  0.577350269189626  0.577350269189626  0.577350269189626
  0.008211737283191  0.185115635344736  0.185115635344736  0.965124035086594
  0.009942814891178  0.690421048382292  0.690421048382292  0.215957291845848
  0.009595471336071  0.395689473055942  0.395689473055942  0.828769981252592
  0.009694996361663  0.478369028812150  0.000000000000000  0.878158910604066
   total no. of   reducible points: 110; test:  1.00000000
  0.000599631368862  1.000000000000000  0.000000000000000  0.000000000000000
  0.007372999718621  0.707106781186547  0.707106781186547  0.000000000000000
  0.007210515360144  0.577350269189626  0.577350269189626  0.577350269189626
  0.007116355493118  0.676441040011426  0.676441040011426  0.291298882209527
  0.006753829486314  0.417496122796545  0.417496122796545  0.807089818359583
  0.007574394159054  0.157467667203908  0.157467667203908  0.974888643677173
  0.006991087353303  0.140355381171318  0.449332832326956  0.882270011260323
   total no. of   reducible points: 146; test:  1.00000000
  0.005544842902037  1.000000000000000  0.000000000000000  0.000000000000000
  0.006071332770671  0.707106781186547  0.707106781186547  0.000000000000000
  0.006383674773515  0.577350269189626  0.577350269189626  0.577350269189626
  0.005183387587748  0.255125262111413  0.255125262111413  0.932642590312691
  0.006317929009814  0.674360146036277  0.674360146036277  0.300793595137701
  0.006201670006589  0.431891069671941  0.431891069671941  0.791795559393492
  0.005477143385137  0.261393136033599  0.000000000000000  0.965232421976448
  0.005968383987681  0.499045316179604  0.144663074432512  0.854415804684659
   total no. of   reducible points: 170; test:  1.00000000
  0.001782340447245  1.000000000000000  0.000000000000000  0.000000000000000
  0.005716905949977  0.707106781186547  0.707106781186547  0.000000000000000
  0.005573383178849  0.577350269189626  0.577350269189626  0.577350269189626
  0.005608704082588  0.671297344269523  0.671297344269523  0.314196994182586
  0.005158237711805  0.289246562757544  0.289246562757544  0.912509096867474
  0.005518771467274  0.444693317871744  0.444693317871744  0.777493219314767
  0.004106777028169  0.129933544765007  0.129933544765007  0.982972302707253
  0.005051846064615  0.345770219761128  0.000000000000000  0.938319218137592
  0.005530248916233  0.159041710538353  0.836036015482459  0.525118572443642
   total no. of   reducible points: 194; test:  1.00000000
 -0.055226399197273  1.000000000000000  0.000000000000000  0.000000000000000
  0.004450274607445  0.577350269189626  0.577350269189626  0.577350269189626
  0.004496841067921  0.449204468739761  0.449204468739761  0.772289253148364
  0.005049153450479  0.252041949021020  0.252041949021020  0.934317778845812
  0.003976408018052  0.698190665844724  0.698190665844724  0.158302205463478
  0.004401400650381  0.658740524346096  0.658740524346096  0.363485684956727
  0.017245443505444  0.040385440500977  0.040385440500977  0.998367683967727
  0.004231083095357  0.582384230971558  0.000000000000000  0.812913653173365
  0.005198069864064  0.354587739051869  0.000000000000000  0.935022745880593
  0.004695720972569  0.227218180899819  0.486466153588665  0.843636521068894
   total no. of   reducible points: 230; test:  1.00000000
 -0.001313769127327  1.000000000000000  0.000000000000000  0.000000000000000
 -0.002522728704859  0.707106781186547  0.707106781186547  0.000000000000000
  0.004186853881701  0.577350269189626  0.577350269189626  0.577350269189626
  0.005315167977811  0.703937339158548  0.703937339158548  0.094575076403713
  0.004047142377086  0.101252624857241  0.101252624857241  0.989694807462905
  0.004112482394407  0.464744872642054  0.464744872642054  0.753673939250816
  0.003595584899759  0.327742065497163  0.327742065497163  0.886098344997499
  0.004256131351428  0.662033866369997  0.662033866369997  0.351315128564633
  0.004229582700647  0.850650808352040  0.000000000000000  0.525731112119134
  0.004080914225781  0.323348454269290  0.115311201100970  0.939227929749916
  0.004071467593831  0.231479015871260  0.524493924092236  0.819343388819120
   total no. of   reducible points: 266; test:  1.00000000
  0.000854591172513  1.000000000000000  0.000000000000000  0.000000000000000
  0.003599119285026  0.577350269189626  0.577350269189626  0.577350269189626
  0.003449788424306  0.351564034557011  0.351564034557011  0.867643624544083
  0.003604822601420  0.656632941021961  0.656632941021961  0.371034178384821
  0.003576729661743  0.472905413258100  0.472905413258100  0.743452042987556
  0.002352101413689  0.096183085226148  0.096183085226148  0.990705621379408
  0.003108953122414  0.221964523629418  0.221964523629418  0.949454317226443
  0.003650045807677  0.701176641608955  0.701176641608955  0.129238672710514
  0.002982344963172  0.264415288706066  0.000000000000000  0.964408914879206
  0.003600820932216  0.571895589187896  0.000000000000000  0.820326419827759
  0.003571540554273  0.251003475177047  0.800072749407395  0.544867737258077
  0.003392312205006  0.123354853258333  0.412772408316853  0.902442529533000
   total no. of   reducible points: 302; test:  1.00000000
  0.003006796749454  1.000000000000000  0.000000000000000  0.000000000000000
  0.003050627745651  0.577350269189626  0.577350269189626  0.577350269189626
  0.001621104600289  0.706896546391232  0.706896546391232  0.024383301669356
  0.003005701484902  0.479468262571203  0.479468262571203  0.734996850587746
  0.002990992529654  0.192753315487802  0.192753315487802  0.962129055136014
  0.002982170644108  0.693035796132712  0.693035796132712  0.198501311223365
  0.002721564237311  0.360830211552009  0.360830211552009  0.860001812127547
  0.003033513795811  0.649848616149617  0.649848616149617  0.394199888605839
  0.003007949555219  0.193294501323034  0.000000000000000  0.981140782843257
  0.002881964603055  0.380049491989930  0.000000000000000  0.924966152698679
  0.002958357626536  0.289955882549957  0.793453785658232  0.535123047718276
  0.003036020026407  0.096841214551040  0.828080150668686  0.552182074349399
  0.002832187403926  0.183343464704166  0.907465826530513  0.378009189874487
   total no. of   reducible points: 350; test:  1.00000000
  0.000526589796822  1.000000000000000  0.000000000000000  0.000000000000000
  0.002548219972003  0.707106781186547  0.707106781186547  0.000000000000000
  0.002512317418927  0.577350269189626  0.577350269189626  0.577350269189626
  0.002530403801186  0.690934630750911  0.690934630750911  0.212646824707552
  0.002014279020919  0.177483605460916  0.177483605460916  0.967987158791473
  0.002501725168403  0.491434263778475  0.491434263778475  0.719016501040843
  0.002513267174598  0.645666470742426  0.645666470742426  0.407712664897770
  0.002302694782227  0.286128901030764  0.286128901030764  0.914472801120872
  0.001462495621595  0.075680843671780  0.075680843671780  0.994255912631278
  0.002445373437313  0.392725976336800  0.392725976336800  0.831584400419232
  0.002417442375639  0.881813287779429  0.000000000000000  0.471598691151316
  0.001910951282180  0.977642811118265  0.000000000000000  0.210272522857307
  0.002416930044325  0.205482369640304  0.868946032287241  0.450233038258263
  0.002512236854563  0.590515704892527  0.799927854385729  0.106801826075805
  0.002496644054553  0.555015236107681  0.771746262691590  0.310428403516654
  0.002236607760438  0.937180985855372  0.334436314534346  0.099217696364292
   total no. of   reducible points: 434; test:  1.00000000
  0.000309512129531  1.000000000000000  0.000000000000000  0.000000000000000
  0.001852379698597  0.577350269189626  0.577350269189626  0.577350269189626
  0.001871790639278  0.704095493822747  0.704095493822747  0.092190407076898
  0.001858812585438  0.680774406645524  0.680774406645524  0.270356088359165
  0.001852028828296  0.637254693925875  0.637254693925875  0.433373868777154
  0.001846715956151  0.504441970780036  0.504441970780036  0.700768575373573
  0.001818471778163  0.421576178401097  0.421576178401097  0.802836877335274
  0.001749564657281  0.331792073647212  0.331792073647212  0.883078727934133
  0.001617210647254  0.238473670142189  0.238473670142189  0.941414158220403
  0.001384737234852  0.145903644915776  0.145903644915776  0.978480583762694
  0.000976433116505  0.060950341155072  0.060950341155072  0.996278129754016
  0.001857161196774  0.611684344200988  0.000000000000000  0.791101929626902
  0.001705153996396  0.396475534819986  0.000000000000000  0.918045287711454
  0.001300321685886  0.172478200990772  0.000000000000000  0.985013335028002
  0.001842866472905  0.561026380862206  0.351828092773352  0.749310611904116
  0.001802658934377  0.474239284255198  0.263471665593795  0.840047488359050
  0.001849830560444  0.598412649788538  0.181664084036021  0.780320742479920
  0.001713904507107  0.379103540769556  0.172079522565688  0.909213475092374
  0.001555213603397  0.277867319058624  0.082130215819325  0.957102074310073
  0.001802239128009  0.503356427107512  0.089992058420749  0.859379855890721
   total no. of   reducible points: 590; test:  1.00000000
  0.000219294208818  1.000000000000000  0.000000000000000  0.000000000000000
  0.001436433617319  0.707106781186547  0.707106781186547  0.000000000000000
  0.001421940344336  0.577350269189626  0.577350269189626  0.577350269189626
  0.000679812351105  0.050872044105024  0.050872044105024  0.997408677652823
  0.000991318423529  0.122819879017883  0.122819879017883  0.984799753572301
  0.001180207833239  0.202689081440879  0.202689081440879  0.958036675983391
  0.001296599602081  0.284774515646429  0.284774515646429  0.915317950483155
  0.001365871427428  0.365671907897803  0.365671907897803  0.855901928697887
  0.001402988604775  0.442826488671347  0.442826488671347  0.779621319527635
  0.001418645563596  0.514061962724974  0.514061962724974  0.686644447264154
  0.001421376741852  0.630640121916680  0.630640121916680  0.452311920313658
  0.001423996475491  0.671688333202261  0.671688333202261  0.312521305001653
  0.001431554042179  0.697979268533688  0.697979268533688  0.160155803498829
  0.000925440149987  0.144686567419531  0.000000000000000  0.989477537495599
  0.001250239995054  0.339026347541122  0.000000000000000  0.940776878793759
  0.001394365843329  0.533580465126351  0.000000000000000  0.845749305193653
  0.001127089094672  0.069440243933494  0.235518789424233  0.969385863498432
  0.001345753760911  0.226900410952946  0.410218247404573  0.883310360522113
  0.001424957283317  0.080255746077753  0.621430241748161  0.779348105702661
  0.001261523341238  0.146799952789657  0.324528434571739  0.934414827052402
  0.001392547106053  0.157150776982473  0.522448218969663  0.838064133458312
  0.001418761677878  0.236570299315725  0.601754663408956  0.762840624604670
  0.001338366684480  0.077148158667657  0.434657551614116  0.897285336132833
  0.001393700862676  0.306293666621073  0.490882658903762  0.815609223203975
  0.001415914757467  0.382247737952479  0.564876814909950  0.731300793659766
   total no. of   reducible points: 770; test:  1.00000000
  0.000143829419053  1.000000000000000  0.000000000000000  0.000000000000000
  0.001125772288287  0.577350269189626  0.577350269189626  0.577350269189626
  0.000494802934195  0.042929635453413  0.042929635453413  0.998155345023847
  0.000735799010913  0.105142685408640  0.105142685408640  0.988883224354686
  0.000888913277130  0.175002486762309  0.175002486762309  0.968890220434707
  0.000988834783892  0.247765337965026  0.247765337965026  0.936602730407163
  0.001053299681709  0.320656712395596  0.320656712395596  0.891267942647606
  0.001092778807015  0.391652074984998  0.391652074984998  0.832596723702352
  0.001114389394063  0.459082587418762  0.459082587418762  0.760582905315251
  0.001123724788052  0.521456388841586  0.521456388841586  0.675400969108414
  0.001125239325244  0.625317024465420  0.625317024465420  0.466858905695743
  0.001126153271816  0.663792674452317  0.663792674452317  0.344613654237438
  0.001130286931124  0.691041039849830  0.691041039849830  0.211954151850184
  0.001134986534364  0.705290700745776  0.705290700745776  0.071624401449956
  0.000682336792711  0.123668676265799  0.000000000000000  0.992323565431490
  0.000945415816045  0.294077711446839  0.000000000000000  0.955781512496548
  0.001074429975386  0.469775384920765  0.000000000000000  0.882785980701182
  0.001129300086569  0.633456324113957  0.000000000000000  0.773778447257375
  0.000843688450090  0.059740486141813  0.202912875277752  0.977372722845310
  0.001075255720449  0.137576040847364  0.460262194248405  0.877058461865803
  0.001108577236864  0.339101652633629  0.503067399966204  0.794942299964208
  0.000956647532378  0.127167519143982  0.281760642244213  0.951020169374390
  0.001080663250717  0.269312074041351  0.433156129172016  0.860143461601762
  0.001126797131196  0.141978645260192  0.625616735858081  0.767102186220558
  0.001022568715358  0.067092846007383  0.379839521685916  0.922616110730809
  0.001108960267713  0.070577381832562  0.551750542142352  0.831017552413474
  0.001122790653436  0.278388847788215  0.602961915615919  0.747620610834086
  0.001032401847117  0.197957893891741  0.358960632958910  0.912118378409121
  0.001107249382284  0.208730706110327  0.534866643813548  0.818748536281022
  0.001121780048520  0.405512213787284  0.567499754607437  0.716591845467024
   total no. of   reducible points: 974; test:  1.00000000
  qrot: 

              1        2        3      
    1    1.0000   0.0000   0.0000
    2    0.0000   1.0000   0.0000
    3    0.0000   0.0000   1.0000
  me                     0   done genpts
  me                     1   done genpts
  me                     2   done genpts
  me                     4   done genpts
  me                     5   done genpts
  me                     6   done genpts
  me                     7   done genpts
  me                     3   done genpts
  me                     0   done uprt
  me                     1   done uprt
  me                     2   done uprt
  me                     3   done uprt
  me                     4   done uprt
  me                     5   done uprt
  me                     6   done uprt
  me                     7   done uprt
  me                     0  done mem
  me                     1  done mem
  me                     2  done mem
  me                     3  done mem
  me                     4  done mem
  me                     5  done mem
  me                     6  done mem
  me                     7  done mem
  dftinpanae: itol2e                     8  iaoacc                    14  tol_rho    1.0000000000000000E-010

            General Information
            -------------------
          SCF calculation type: DFT
          Wavefunction type:  spin polarized.
          No. of atoms     :     1
          No. of electrons :    31
           Alpha electrons :    16
            Beta electrons :    15
          Charge           :     0
          Spin multiplicity:     2
          Use of symmetry is: off; symmetry adaption is: off
          Maximum number of iterations:  50
          AO basis - number of functions:    69
                     number of shells:    19
          Convergence on energy requested:  1.00D-06
          Convergence on density requested:  1.00D-05
          Convergence on gradient requested:  5.00D-04

              XC Information
              --------------
                     Hartree-Fock (Exact) Exchange  1.000          
                     LC-wPBE(h)Exchange Functional  1.000          
            Perdew 1991 LDA Correlation Functional  1.000 local    
           PerdewBurkeErnz. Correlation Functional  1.000 non-local

           Range-Separation Parameters        
           ---------------------------
           Alpha           :  0.00
           Beta            :  1.00
           Gamma           :  0.23
           Short-Range HF  :     F

             Grid Information
             ----------------
          Grid used for XC integration:  fine      
          Radial quadrature: Mura-Knowles        
          Angular quadrature: Lebedev. 
          Tag              B.-S. Rad. Rad. Pts. Rad. Cut. Ang. Pts.
          ---              ---------- --------- --------- ---------
          Ga                  1.30      140          14.0       974
          Grid pruning is: on 
          Number of quadrature shells:   140
          Spatial weights used:  Erf1

          Convergence Information
          -----------------------
          Convergence aids based upon iterative change in 
          total energy or number of iterations. 
          Levelshifting, if invoked, occurs when the 
          HOMO/LUMO gap drops below (HL_TOL):  1.00D-02
          DIIS, if invoked, will attempt to extrapolate 
          using up to (NFOCK): 10 stored Fock matrices.

                    Damping( 0%)  Levelshifting(0.5)       DIIS
                  --------------- ------------------- ---------------
          dE  on:    start            ASAP                start   
          dE off:    2 iters         50 iters            50 iters 


      Screening Tolerance Information
      -------------------------------
          Density screening/tol_rho:  1.00D-10
          AO Gaussian exp screening on grid/accAOfunc:  14
          CD Gaussian exp screening on grid/accCDfunc:  20
          XC Gaussian exp screening on grid/accXCfunc:  20
          Schwarz screening/accCoul:  1.00D-08



                         Geometry "geometry" -> "geometry"
                         ---------------------------------

 Output coordinates in angstroms (scale by  1.889725989 to convert to a.u.)

  No.       Tag          Charge          X              Y              Z
 ---- ---------------- ---------- -------------- -------------- --------------
    1 Ga                  31.0000     0.00000000     0.00000000     0.00000000

      Atomic Mass 
      ----------- 

      Ga                68.925700


 Effective nuclear repulsion energy (a.u.)       0.0000000000

            Nuclear Dipole moment (a.u.) 
            ----------------------------
        X                 Y               Z
 ---------------- ---------------- ----------------
     0.0000000000     0.0000000000     0.0000000000

  
  CAM type calculations without CDFIT are
  only available with the direct option.
  Forcing Direct SCF
  


     <<<<<<    Before call to DFT_SCF.    >>>>>>
     <<<<<< date:  May  8  time: 11:50:08 >>>>>>


 Setting tolerance for linear dependence to 1.00D-05





 Setting tolerance for linear dependence to 1.00D-05

 Setting tolerance for linear dependence to 1.00D-05

 Setting tolerance for linear dependence to 1.00D-05
 Setting tolerance for linear dependence to 1.00D-05
 Setting tolerance for linear dependence to 1.00D-05
 Setting tolerance for linear dependence to 1.00D-05
 Setting tolerance for linear dependence to 1.00D-05
  lindep tolerance =    1.0000000000000001E-005
  lindep tolerance =    1.0000000000000001E-005
  lindep tolerance =    1.0000000000000001E-005
  lindep tolerance =    1.0000000000000001E-005
  lindep tolerance =    1.0000000000000001E-005
  lindep tolerance =    1.0000000000000001E-005
  lindep tolerance =    1.0000000000000001E-005
  lindep tolerance =    1.0000000000000001E-005


     <<<<<<    Before 3c-2e initialize.   >>>>>>
     <<<<<< date:  May  8  time: 11:50:08 >>>>>>


 Setting fock-build task_bf   :      -1
                    maxquartet:   10000
                    maxeri    :  129600
                    maxscr    :       0
                    intacc    : 0.0D+00
                    denscreen : T
                    dentol    : 1.0D-06


      Superposition of Atomic Density Guess
      -------------------------------------

 Sum of atomic energies:       -1923.26321256

      Non-variational initial energy
      ------------------------------

 Total energy =   -1923.152088
 1-e energy   =   -2684.956257
 2-e energy   =     761.804169
 HOMO         =      -0.008300
 LUMO         =      -0.008300


 Setting fock-build task_bf   :      -1
                    maxquartet:   10000
                    maxeri    :  129600
                    maxscr    :       0
                    intacc    : 0.0D+00
                    denscreen : T
                    dentol    : 1.0D-06


 Wrote molecular orbitals to ./ga.movecs

  WARNING: movecs_in_org=atomic not equal to movecs_in=./ga.movecs
   Time after variat. SCF:      7.3

 Setting fock-build task_bf   :      -1
                    maxquartet:   10000
                    maxeri    :  129600
                    maxscr    :       0
                    intacc    : 0.0D+00
                    denscreen : T
                    dentol    : 1.0D-06

   Time prior to 1st pass:      7.3


     <<<<<<      Before SCF iter loop.    >>>>>>
     <<<<<< date:  May  8  time: 11:50:15 >>>>>>

           DAMPING=T LEVELSHIFTING=F DIISING=T
          itol2e= 8 iAOacc=12 iXCacc=20


     <<<<<<            calling 1-e int    >>>>>>
     <<<<<< date:  May  8  time: 11:50:15 >>>>>>

    Kinetic Matrix Time:          0.0s

           Kinetic energy =   1922.941140498752

    Potential Matrix Time:          0.0s


     <<<<<<    Before call to GETVXC.     >>>>>>
     <<<<<< date:  May  8  time: 11:50:15 >>>>>>



     <<<<<<    Before call to fock_2e.    >>>>>>
     <<<<<< date:  May  8  time: 11:50:15 >>>>>>



     <<<<<<     After call to fock_2e.    >>>>>>
     <<<<<< date:  May  8  time: 11:50:17 >>>>>>

    Fock_2e Build Time:          1.9s
  *** grid_quadv0:                    calc_type:                    1
  *** grid_quadv0:                    grid_written: F
  *** grid_quadv0:                    grad: T
  *** grid_quadv0:                    kske: F
  *** grid_quadv0:                    kslap: F
  *** grid_quadv0:                    calc_type:                    1
  *** grid_quadv0:                    grid_written: F
  *** grid_quadv0:                    grad: T
  *** grid_quadv0:                    kske: F
  *** grid_quadv0:                    calc_type:                    1
  *** grid_quadv0:                    grid_written: F
  *** grid_quadv0:                    grad: T
  *** grid_quadv0:                    kske: F
  *** grid_quadv0:                    kslap: F
  *** grid_quadv0:                    do_scf: T
  *** grid_quadv0:                    fde_option:                    0
  *** grid_quadv0:                    n_per_rec:                 3070
  *** grid_quadv0:                    calc_type:                    1
  *** grid_quadv0:                    grid_written: F
  *** grid_quadv0:                    grad: T
  *** grid_quadv0:                    kske: F
  *** grid_quadv0:                    kslap: F
  *** grid_quadv0:                    do_scf: T
  *** grid_quadv0:                    fde_option:                    0
  *** grid_quadv0:                    n_per_rec:                 3070
  *** grid_quadv0:                    do_scf: T
  *** grid_quadv0:                    fde_option:                    0
  *** grid_quadv0:                    n_per_rec:                 3070
  *** grid_quadv0:                    kslap: F
  *** grid_quadv0:                    do_scf: T
  *** grid_quadv0:                    fde_option:                    0
  *** grid_quadv0:                    n_per_rec:                 3070
  *** grid_quadv0:                    calc_type:                    1
  *** grid_quadv0:                    grid_written: F
  *** grid_quadv0:                    grad: T
  *** grid_quadv0:                    kske: F
  *** grid_quadv0:                    kslap: F
  *** grid_quadv0:                    do_scf: T
  *** grid_quadv0:                    fde_option:                    0
  *** grid_quadv0:                    n_per_rec:                 3070
  *** grid_quadv0:                    calc_type:                    1
  *** grid_quadv0:                    grid_written: F
  *** grid_quadv0:                    grad: T
  *** grid_quadv0:                    kske: F
  *** grid_quadv0:                    kslap: F
  *** grid_quadv0:                    do_scf: T
  *** grid_quadv0:                    fde_option:                    0
  *** grid_quadv0:                    n_per_rec:                 3070
  *** grid_quadv0:                    calc_type:                    1
  *** grid_quadv0:                    grid_written: F
  *** grid_quadv0:                    grad: T
  *** grid_quadv0:                    kske: F
  *** grid_quadv0:                    kslap: F
  *** grid_quadv0:                    do_scf: T
  *** grid_quadv0:                    fde_option:                    0
  *** grid_quadv0:                    n_per_rec:                 3070
  *** grid_quadv0:                    calc_type:                    1
  *** grid_quadv0:                    grid_written: F
  *** grid_quadv0:                    grad: T
  *** grid_quadv0:                    kske: F
  *** grid_quadv0:                    kslap: F
  *** grid_quadv0:                    do_scf: T
  *** grid_quadv0:                    fde_option:                    0
  *** grid_quadv0:                    n_per_rec:                 3070
   0: nuse=   8 avail= 12500000Mb on .
   2: nuse=   8 avail= 12500000Mb on .
   3: nuse=   8 avail= 12500000Mb on .
   4: nuse=   8 avail= 12500000Mb on .
   5: nuse=   8 avail= 12500000Mb on .
   6: nuse=   8 avail= 12500000Mb on .
   1: nuse=   8 avail= 12500000Mb on .
   7: nuse=   8 avail= 12500000Mb on .
 l_cube input   11.00

  atom type   l_cube   no. cubes   segmts   rad   sub
 ----------- -------- ----------- -------- ----- -----
        1     10.40       124         5      26     8

 Grid_pts file          = ./ga.gridpts.0
 Record size in doubles =  12289        No. of grid_pts per rec  =   3070
 Max. records in memory =      8        Max. recs in file   = 126656358

 me   0 NQTOTC NQ/cube   14352     260
 me   1 NQTOTC NQ/cube    6885     405
 me   2 NQTOTC NQ/cube    7521     626
 me   3 NQTOTC NQ/cube    7179     897
 me   4 NQTOTC NQ/cube    5939     593
 me   5 NQTOTC NQ/cube    7752    1550
 me   6 NQTOTC NQ/cube    6936     770
 me   7 NQTOTC NQ/cube    6248     781

 XC quadr. integrated density :      31.000000 npts:    62582 nctrs:        1

    Fock_xc Build Time:          0.1s


     <<<<<<    Before call to GETVCOUL.   >>>>>>
     <<<<<< date:  May  8  time: 11:50:17 >>>>>>



     <<<<<<    End of parallel region.    >>>>>>
     <<<<<< date:  May  8  time: 11:50:17 >>>>>>

    Total Fock Matrix Build Time:          2.1s
 Etnew, Ecore, Ecoul, Exc(1), Exc(2), Totsic:   -1924.5251759229564       -2682.5540132264546        832.76326241445577       -74.734425110957616        0.0000000000000000        0.0000000000000000     
  delta =   -1924.5251759229564     
  delta =   -1924.5251759229564     


         Total DFT energy =    -1924.525175922956
      One electron energy =    -2682.554013226455
  delta =   -1924.5251759229564     
  delta =   -1924.5251759229564     
  delta =   -1924.5251759229564     
  delta =   -1924.5251759229564     
  delta =   -1924.5251759229564     
  delta =   -1924.5251759229564     
           Coulomb energy =      832.763262414456
    Exchange-Corr. energy =      -74.734425110958
 Nuclear repulsion energy =        0.000000000000

 Numeric. integr. density =       30.999999999015

     Total iterative time =     10.4s




     <<<<<<        calling diis driver    >>>>>>
     <<<<<< date:  May  8  time: 11:50:17 >>>>>>

 nhist                     1  pulay matrix 
   0.0000E+00
  -1.0000E+00   4.5974E-01


     <<<<<<         called diis driver    >>>>>>
     <<<<<< date:  May  8  time: 11:50:17 >>>>>>


 global array: fock transf[1:69,1:69],  handle: -940 

            1           2           3           4           5           6  
       ----------- ----------- ----------- ----------- ----------- -----------
   1      41.83927     0.00000    -0.00000    -0.00000     0.46134    -0.00000
   2       0.00000     5.72577     0.00050    -0.00008     0.00000     0.01665
   3      -0.00000     0.00050     5.72383    -0.00002    -0.00000    -0.04313
   4      -0.00000    -0.00008    -0.00002     5.72371    -0.00000    -0.01012
   5       0.46134     0.00000    -0.00000    -0.00000     4.55769    -0.00000
   6      -0.00000     0.01665    -0.04313    -0.01012    -0.00000     0.36530
   7       0.00000     0.00533    -0.00878     0.04621     0.00000     0.00001
   8      -0.00000    -0.04340    -0.01734     0.00175    -0.00000    -0.00032
   9       2.12185    -0.00000     0.00000     0.00000     2.09279     0.00000
  10      -0.00000    -0.63336    -0.14854     0.01106    -0.00000     0.03106
  11       0.00000     0.10521    -0.41313     0.48528     0.00000    -0.10661
  12      -0.00000     0.10384    -0.47416    -0.42618    -0.00000    -0.19271
  13       0.00000    -0.00001     0.00004    -0.00001     0.00000    -0.00005
  14      -2.40092     0.00000    -0.00000    -0.00000     0.23518    -0.00000
  15       2.89248     0.00000    -0.00000    -0.00000    -0.11280    -0.00000
  16      -0.00000    -0.00007     0.00023    -0.00030    -0.00000    -0.00025
  17       0.00000     0.00004    -0.00009     0.00053     0.00000    -0.00003
  18      -0.00000    -0.00014     0.00057     0.00021    -0.00000    -0.00092
  19       0.00007     0.00000     0.00000    -0.00000    -0.00010     0.00000
  20       0.00001     0.00000     0.00000    -0.00000    -0.00001     0.00000
  21      -0.00000     0.00000    -0.00000    -0.00000     0.00000    -0.00000
  22       0.00000    -0.07473     0.01316    -0.02469     0.00000    -0.00204
  23       0.00000     0.01097    -0.04998    -0.05984     0.00000     0.00385
  24      -0.00000    -0.02674    -0.05953     0.04482    -0.00000     0.00218
  25      -0.00000    -0.00002     0.00006    -0.00002    -0.00000     0.00004
  26      -0.00105    -0.00000     0.00000    -0.00000     0.00164     0.00000
  27      -0.00055     0.00000    -0.00000    -0.00000     0.00085    -0.00000
  28       0.00000     0.00004    -0.00017    -0.00011     0.00000    -0.00014
  29      -0.00000     0.00014    -0.00047     0.00092    -0.00000    -0.00020
  30       0.00000    -0.00019     0.00088     0.00048     0.00000     0.00070
  31      -0.00000    -0.00000     0.00000     0.00000     0.00001     0.00000
  32      -0.00002     0.00000     0.00000    -0.00000     0.00007    -0.00000
  33      -0.00000    -0.00000     0.00000     0.00000     0.00000     0.00000
  34      -0.00000     0.05189     0.01242    -0.01159    -0.00000    -0.01782
  35       0.00000    -0.00448     0.04585     0.02819     0.00000     0.09289
  36       0.00000     0.01626    -0.02579     0.04457     0.00000    -0.03706
  37       0.00000    -0.00000     0.00000     0.00000    -0.00000     0.00000
  38      -0.00000    -0.00000     0.00000    -0.00000     0.00000     0.00000
  39       0.00000     0.00000    -0.00000     0.00000    -0.00000    -0.00000
  40      -0.00000    -0.00917    -0.00166    -0.00014    -0.00000     0.01714
  41      -0.00000     0.00125    -0.00615    -0.00787    -0.00000    -0.07694
  42      -0.00000    -0.00147     0.00773    -0.00627    -0.00000     0.06187
  43      -0.00004     0.00000    -0.00000    -0.00000     0.00015    -0.00000
  44       0.00035     0.00000    -0.00000    -0.00000    -0.00128    -0.00000
  45      -0.33317     0.00000    -0.00000    -0.00000    -0.10127    -0.00000
  46       0.00001     0.00000     0.00000    -0.00000    -0.00002     0.00000
  47      -0.00001     0.00000    -0.00000     0.00000     0.00001    -0.00000
  48       0.00000     0.00000    -0.00000    -0.00000    -0.00000    -0.00000
  49       0.00012     0.00000    -0.00000    -0.00000    -0.00014    -0.00000
  50      -0.00000    -0.00000     0.00000     0.00000     0.00000     0.00000
  51      -0.31032    -0.00000     0.00000     0.00000     0.12609     0.00000
  52      -0.00000     0.03070     0.00821     0.00778    -0.00000    -0.00001
  53      -0.00000     0.00364    -0.02846     0.01560    -0.00000    -0.00009
  54       0.00000     0.01072    -0.01376    -0.02761     0.00000    -0.00009
  55      -0.18051     0.00000    -0.00000    -0.00000     0.16967    -0.00000
  56      -0.00000    -0.03210    -0.00754     0.00176    -0.00000     0.01104
  57       0.00000     0.00046    -0.00930    -0.03081     0.00000    -0.03569
  58      -0.00000    -0.00751     0.02993    -0.00915    -0.00000     0.06551
  59      -0.00023     0.00000    -0.00000    -0.00000     0.00025    -0.00000
  60      -0.00027    -0.00000     0.00000     0.00000     0.00030     0.00000
  61      -0.01301     0.00000    -0.00000    -0.00000     0.11548    -0.00000
  62      -0.00000     0.14497    -0.04555     0.06674    -0.00000    -0.00887
  63       0.00000    -0.06337    -0.14893     0.03730     0.00000    -0.01197
  64       0.00000     0.04946    -0.05821    -0.14768     0.00000    -0.01158
  65       0.55631     0.00000    -0.00000    -0.00000    -0.23510    -0.00000
  66      -0.00000     0.04514    -0.01546    -0.02168    -0.00000    -0.00483
  67       0.00000     0.01146    -0.02726     0.04333     0.00000    -0.00270
  68      -0.00000    -0.02398    -0.04207    -0.02011    -0.00000    -0.00463
  69      -0.12950     0.00000    -0.00000    -0.00000     0.02663    -0.00000

            7           8           9          10          11          12  
       ----------- ----------- ----------- ----------- ----------- -----------
   1       0.00000    -0.00000     2.12185    -0.00000     0.00000    -0.00000
   2       0.00533    -0.04340    -0.00000    -0.63336     0.10521     0.10384
   3      -0.00878    -0.01734     0.00000    -0.14854    -0.41313    -0.47416
   4       0.04621     0.00175     0.00000     0.01106     0.48528    -0.42618
   5       0.00000    -0.00000     2.09279    -0.00000     0.00000    -0.00000
   6       0.00001    -0.00032     0.00000     0.03106    -0.10661    -0.19271
   7       0.36526    -0.00007    -0.00000     0.01138    -0.19358     0.10893
   8      -0.00007     0.36767     0.00000    -0.21988    -0.02510    -0.02160
   9      -0.00000     0.00000     1.91959     0.00000    -0.00000     0.00000
  10       0.01138    -0.21988     0.00000     1.46345     0.00020     0.00001
  11      -0.19358    -0.02510    -0.00000     0.00020     1.45648     0.00000
  12       0.10893    -0.02160     0.00000     0.00001     0.00000     1.45648
  13      -0.00003    -0.00001    -0.00000    -0.00000     0.00010     0.00007
  14       0.00000    -0.00000     0.54250    -0.00000     0.00000    -0.00000
  15       0.00000    -0.00000    -0.22187    -0.00000     0.00000    -0.00000
  16      -0.00052    -0.00004     0.00000    -0.00007     0.00115    -0.00007
  17       0.00080     0.00001    -0.00000     0.00006    -0.00136     0.00082
  18       0.00012    -0.00009     0.00000    -0.00008     0.00068     0.00172
  19       0.00000     0.00000     0.00005     0.00000     0.00000    -0.00000
  20       0.00000     0.00000     0.00000     0.00000     0.00000     0.00000
  21      -0.00000     0.00000    -0.00000     0.00000    -0.00000    -0.00000
  22      -0.00215     0.00447    -0.00000     0.06768    -0.03950    -0.00553
  23      -0.00297     0.00038    -0.00000    -0.00030    -0.01125     0.07819
  24       0.00322     0.00336     0.00000     0.03927     0.06747     0.00979
  25       0.00002     0.00001     0.00000    -0.00000     0.00010     0.00007
  26       0.00000    -0.00000    -0.00073    -0.00000     0.00000     0.00000
  27       0.00000    -0.00000    -0.00038     0.00000    -0.00000    -0.00000
  28       0.00006    -0.00001    -0.00000     0.00000    -0.00005    -0.00036
  29      -0.00072    -0.00003     0.00000     0.00006    -0.00175     0.00042
  30      -0.00020     0.00007    -0.00000    -0.00002     0.00041     0.00171
  31       0.00000     0.00000     0.00001    -0.00000     0.00000     0.00000
  32       0.00000     0.00000     0.00011     0.00000     0.00000    -0.00000
  33      -0.00000    -0.00000     0.00000    -0.00000     0.00000     0.00000
  34       0.01458     0.09856     0.00000    -0.01963    -0.00318     0.00300
  35      -0.03484     0.02192    -0.00000    -0.00204    -0.00367    -0.02209
  36      -0.09432     0.00709    -0.00000    -0.00345     0.02199    -0.00326
  37       0.00000    -0.00000    -0.00001    -0.00000     0.00000     0.00000
  38       0.00000    -0.00000     0.00001    -0.00000     0.00000     0.00000
  39      -0.00000    -0.00000    -0.00001    -0.00000    -0.00000    -0.00000
  40       0.00854    -0.09693     0.00000     0.03027    -0.00130    -0.00030
  41       0.06373    -0.00797     0.00000     0.00012    -0.00530     0.02959
  42       0.07688     0.01744     0.00000    -0.00147    -0.02957    -0.00530
  43       0.00000    -0.00000     0.00023     0.00000    -0.00000    -0.00000
  44       0.00000    -0.00000    -0.00197    -0.00000     0.00000    -0.00000
  45       0.00000    -0.00000    -0.24654    -0.00000     0.00000    -0.00000
  46       0.00000     0.00000    -0.00002     0.00000     0.00000     0.00000
  47      -0.00000     0.00000     0.00001     0.00000    -0.00000    -0.00000
  48      -0.00000     0.00000    -0.00000     0.00000    -0.00000    -0.00000
  49       0.00000    -0.00000    -0.00028    -0.00000     0.00000    -0.00000
  50      -0.00000     0.00000     0.00000    -0.00000     0.00000     0.00000
  51      -0.00000     0.00000     0.15924     0.00000    -0.00000     0.00000
  52      -0.00004     0.00013     0.00000    -0.07346     0.01298    -0.01445
  53      -0.00008    -0.00003     0.00000     0.00746     0.07075     0.02593
  54       0.00009     0.00002    -0.00000    -0.01802    -0.02364     0.06966
  55       0.00000    -0.00000     0.13952    -0.00000     0.00000    -0.00000
  56       0.00114    -0.07380     0.00000     0.10389     0.00283    -0.00264
  57       0.06631    -0.00428    -0.00000     0.00372    -0.05713     0.09085
  58       0.03592     0.01035     0.00000     0.00109    -0.09088    -0.05719
  59       0.00000    -0.00000     0.00024     0.00000    -0.00000    -0.00000
  60       0.00000     0.00000     0.00029    -0.00000     0.00000     0.00000
  61       0.00000    -0.00000     0.13293    -0.00000     0.00000    -0.00000
  62      -0.01021     0.01285     0.00000    -0.23603     0.18915     0.02333
  63      -0.00646    -0.01290    -0.00000     0.17537     0.20754     0.13699
  64       0.01451     0.00333    -0.00000    -0.06798    -0.12066     0.27221
  65       0.00000    -0.00000    -0.19223    -0.00000     0.00000    -0.00000
  66       0.00179     0.00562     0.00000    -0.13960     0.00318     0.10952
  67      -0.00668    -0.00009    -0.00000    -0.01427     0.17245    -0.02240
  68       0.00201    -0.00550     0.00000     0.11163     0.02624     0.13395
  69       0.00000    -0.00000     0.01203    -0.00000     0.00000    -0.00000

           13          14          15          16          17          18  
       ----------- ----------- ----------- ----------- ----------- -----------
   1       0.00000    -2.40092     2.89248    -0.00000     0.00000    -0.00000
   2      -0.00001     0.00000     0.00000    -0.00007     0.00004    -0.00014
   3       0.00004    -0.00000    -0.00000     0.00023    -0.00009     0.00057
   4      -0.00001    -0.00000    -0.00000    -0.00030     0.00053     0.00021
   5       0.00000     0.23518    -0.11280    -0.00000     0.00000    -0.00000
   6      -0.00005    -0.00000    -0.00000    -0.00025    -0.00003    -0.00092
   7      -0.00003     0.00000     0.00000    -0.00052     0.00080     0.00012
   8      -0.00001    -0.00000    -0.00000    -0.00004     0.00001    -0.00009
   9      -0.00000     0.54250    -0.22187     0.00000    -0.00000     0.00000
  10      -0.00000    -0.00000    -0.00000    -0.00007     0.00006    -0.00008
  11       0.00010     0.00000     0.00000     0.00115    -0.00136     0.00068
  12       0.00007    -0.00000    -0.00000    -0.00007     0.00082     0.00172
  13       0.84536     0.00000     0.00000     0.00003    -0.00002     0.00006
  14       0.00000     1.10146    -0.94298    -0.00000     0.00000    -0.00000
  15       0.00000    -0.94298     1.08953    -0.00000     0.00000    -0.00000
  16       0.00003    -0.00000    -0.00000     0.84583    -0.00053     0.00016
  17      -0.00002     0.00000     0.00000    -0.00053     0.84604     0.00013
  18       0.00006    -0.00000    -0.00000     0.00016     0.00013     0.84643
  19       0.00000     0.00008    -0.00007    -0.00000    -0.00000    -0.00000
  20      -0.00000     0.00001    -0.00001    -0.00000    -0.00000    -0.00000
  21      -0.00000    -0.00000     0.00000     0.00000     0.00000     0.00000
  22       0.00003     0.00000     0.00000     0.00030    -0.00028     0.00024
  23      -0.00002     0.00000     0.00000     0.00019    -0.00036    -0.00072
  24      -0.00004    -0.00000    -0.00000    -0.00044     0.00041    -0.00030
  25       0.31446    -0.00000    -0.00000     0.00002    -0.00002     0.00004
  26       0.00000    -0.00121     0.00111    -0.00000     0.00000    -0.00000
  27       0.00000    -0.00063     0.00058    -0.00000    -0.00000    -0.00000
  28      -0.00001     0.00000     0.00000     0.24232     0.14974    -0.13323
  29      -0.00003    -0.00000    -0.00000    -0.18192     0.25322    -0.04636
  30       0.00004     0.00000     0.00000     0.08500     0.11269     0.28183
  31       0.00000    -0.00000     0.00000    -0.00000    -0.00000    -0.00000
  32       0.00000    -0.00001     0.00004    -0.00000     0.00000    -0.00000
  33      -0.00000    -0.00000     0.00000     0.00000     0.00000     0.00000
  34       0.00000    -0.00000    -0.00000    -0.00010     0.00019     0.00013
  35      -0.00006     0.00000     0.00000    -0.00009    -0.00044    -0.00134
  36       0.00007     0.00000     0.00000     0.00085    -0.00108     0.00032
  37      -0.00000     0.00005    -0.00006     0.00000    -0.00000    -0.00000
  38      -0.00000    -0.00006     0.00008    -0.00000     0.00000    -0.00000
  39      -0.00000     0.00006    -0.00008     0.00000     0.00000     0.00000
  40       0.00001    -0.00000    -0.00000     0.00006    -0.00005     0.00009
  41      -0.00002    -0.00000    -0.00000     0.00012    -0.00030    -0.00051
  42       0.00003    -0.00000    -0.00000     0.00037    -0.00036     0.00030
  43      -0.00000    -0.00003     0.00009    -0.00000    -0.00000    -0.00000
  44       0.00000     0.00027    -0.00075    -0.00000     0.00000    -0.00000
  45       0.00000    -0.18367     0.00423    -0.00000     0.00000    -0.00000
  46       0.00000     0.00002    -0.00006    -0.00000    -0.00000    -0.00000
  47      -0.00000    -0.00002     0.00006    -0.00000     0.00000     0.00000
  48      -0.00000     0.00001    -0.00002    -0.00000    -0.00000     0.00000
  49       0.00000     0.00184    -0.00223    -0.00000     0.00000    -0.00000
  50       0.00000    -0.00002     0.00003     0.00000     0.00000     0.00000
  51      -0.00000     0.64001    -0.71395    -0.00000    -0.00000     0.00000
  52       0.00000    -0.00000    -0.00000     0.00000    -0.00001    -0.00000
  53       0.00000    -0.00000     0.00000     0.00002    -0.00002     0.00002
  54       0.00000     0.00000     0.00000    -0.00001     0.00002     0.00002
  55       0.00000     1.21714    -1.74225    -0.00000    -0.00000     0.00000
  56       0.00000    -0.00000    -0.00000     0.00002    -0.00002     0.00001
  57       0.00000     0.00000     0.00000    -0.00034     0.00077     0.00058
  58      -0.00007    -0.00000    -0.00000    -0.00050     0.00038    -0.00079
  59       0.00000    -0.00038     0.00102    -0.00000    -0.00000    -0.00000
  60       0.00000    -0.00046     0.00121    -0.00000     0.00000    -0.00000
  61       0.00000     0.23640    -0.29569    -0.00000     0.00000    -0.00000
  62       0.00000    -0.00000    -0.00000     0.00003    -0.00004     0.00002
  63       0.00000     0.00000     0.00000     0.00004    -0.00003     0.00006
  64       0.00000     0.00000     0.00000    -0.00002     0.00006     0.00006
  65       0.00000    -0.72206     0.92499     0.00000     0.00000    -0.00000
  66      -0.00003    -0.00000    -0.00000    -0.00006    -0.00025    -0.00076
  67      -0.00006     0.00000     0.00000    -0.00069     0.00089    -0.00028
  68      -0.00004    -0.00000    -0.00000    -0.00003    -0.00030    -0.00078
  69       0.00000     0.08296    -0.10655    -0.00000     0.00000    -0.00000

           19          20          21          22          23          24  
       ----------- ----------- ----------- ----------- ----------- -----------
   1       0.00007     0.00001    -0.00000     0.00000     0.00000    -0.00000
   2       0.00000     0.00000     0.00000    -0.07473     0.01097    -0.02674
   3       0.00000     0.00000    -0.00000     0.01316    -0.04998    -0.05953
   4      -0.00000    -0.00000    -0.00000    -0.02469    -0.05984     0.04482
   5      -0.00010    -0.00001     0.00000     0.00000     0.00000    -0.00000
   6       0.00000     0.00000    -0.00000    -0.00204     0.00385     0.00218
   7       0.00000     0.00000    -0.00000    -0.00215    -0.00297     0.00322
   8       0.00000     0.00000     0.00000     0.00447     0.00038     0.00336
   9       0.00005     0.00000    -0.00000    -0.00000    -0.00000     0.00000
  10       0.00000     0.00000     0.00000     0.06768    -0.00030     0.03927
  11       0.00000     0.00000    -0.00000    -0.03950    -0.01125     0.06747
  12      -0.00000     0.00000    -0.00000    -0.00553     0.07819     0.00979
  13       0.00000    -0.00000    -0.00000     0.00003    -0.00002    -0.00004
  14       0.00008     0.00001    -0.00000     0.00000     0.00000    -0.00000
  15      -0.00007    -0.00001     0.00000     0.00000     0.00000    -0.00000
  16      -0.00000    -0.00000     0.00000     0.00030     0.00019    -0.00044
  17      -0.00000    -0.00000     0.00000    -0.00028    -0.00036     0.00041
  18      -0.00000    -0.00000     0.00000     0.00024    -0.00072    -0.00030
  19       0.75267    -0.00002     0.00010    -0.00000     0.00000    -0.00000
  20      -0.00002     0.75272    -0.00029    -0.00000     0.00000    -0.00000
  21       0.00010    -0.00029     0.75394    -0.00000     0.00000     0.00000
  22      -0.00000    -0.00000    -0.00000     0.80085     0.00000    -0.00031
  23       0.00000     0.00000     0.00000     0.00000     0.80136     0.00001
  24      -0.00000    -0.00000     0.00000    -0.00031     0.00001     0.80117
  25      -0.00000    -0.00000     0.00000    -0.00007     0.00006     0.00010
  26      -0.00011     0.00001     0.00001     0.00000    -0.00000    -0.00000
  27      -0.00006    -0.00004    -0.00001    -0.00000     0.00000     0.00000
  28       0.00000     0.00000     0.00000     0.00006    -0.00044    -0.00007
  29       0.00000     0.00000     0.00000     0.00103     0.00074    -0.00156
  30       0.00000     0.00000    -0.00000    -0.00043     0.00182     0.00059
  31      -0.01109    -0.10278     0.28791     0.00000    -0.00000    -0.00000
  32      -0.30506    -0.02086    -0.01907    -0.00000     0.00000    -0.00000
  33      -0.02604     0.28784     0.10164     0.00000    -0.00000     0.00000
  34      -0.00000    -0.00000    -0.00000    -0.24547     0.04781    -0.19022
  35      -0.00000    -0.00000     0.00000     0.01902    -0.29852    -0.09906
  36       0.00000     0.00000    -0.00000    -0.19569    -0.08890     0.23045
  37       0.07272     0.05761     0.12491     0.00000    -0.00000    -0.00000
  38      -0.10659     0.11212     0.01004     0.00000    -0.00000     0.00000
  39       0.08590     0.09029    -0.09298    -0.00000     0.00000     0.00000
  40       0.00000     0.00000     0.00000    -0.10740     0.00111    -0.05578
  41      -0.00000    -0.00000    -0.00000    -0.00287    -0.12066     0.00316
  42      -0.00000    -0.00000     0.00000    -0.05559     0.00412     0.10709
  43      -0.00000    -0.00001    -0.00000    -0.00000     0.00000     0.00000
  44       0.00001    -0.00000    -0.00000     0.00000     0.00000    -0.00000
  45      -0.00002    -0.00000     0.00000     0.00000     0.00000    -0.00000
  46       0.07142     0.08041    -0.01531    -0.00000    -0.00000    -0.00000
  47      -0.07841     0.07316     0.01903    -0.00000     0.00000     0.00000
  48       0.02471     0.00038     0.10190    -0.00000     0.00000     0.00000
  49       0.00005     0.00000    -0.00000     0.00000     0.00000    -0.00000
  50       0.00000    -0.00003    -0.00001     0.00000    -0.00000    -0.00000
  51       0.00000     0.00000    -0.00000    -0.00000    -0.00000     0.00000
  52       0.00000     0.00000     0.00000    -0.00181    -0.00041    -0.00073
  53      -0.00000    -0.00000     0.00000    -0.00079     0.00040     0.00174
  54       0.00000     0.00000     0.00000    -0.00023     0.00187    -0.00054
  55       0.00000     0.00000    -0.00000     0.00000     0.00000    -0.00000
  56      -0.00000    -0.00000    -0.00000     0.07030    -0.00260     0.04318
  57       0.00000     0.00000     0.00000     0.01975     0.07608    -0.02766
  58       0.00000     0.00000    -0.00000     0.03902    -0.03389    -0.06535
  59       0.00003     0.00011     0.00002    -0.00000     0.00000     0.00000
  60       0.00004    -0.00008    -0.00002     0.00000    -0.00000    -0.00000
  61      -0.00002    -0.00000     0.00000     0.00000     0.00000    -0.00000
  62      -0.00000     0.00000     0.00000    -0.06336    -0.00065     0.00986
  63      -0.00000    -0.00000     0.00000     0.00805     0.02235     0.05983
  64       0.00000     0.00000     0.00000    -0.00362     0.06079    -0.02189
  65       0.00006     0.00001    -0.00000     0.00000     0.00000    -0.00000
  66      -0.00000    -0.00000    -0.00000    -0.05631     0.04536    -0.02389
  67       0.00000     0.00000    -0.00000    -0.04056    -0.01955     0.05757
  68       0.00000     0.00000    -0.00000     0.03276     0.05385     0.04106
  69       0.00020     0.00002    -0.00001     0.00000     0.00000    -0.00000

           25          26          27          28          29          30  
       ----------- ----------- ----------- ----------- ----------- -----------
   1      -0.00000    -0.00105    -0.00055     0.00000    -0.00000     0.00000
   2      -0.00002    -0.00000     0.00000     0.00004     0.00014    -0.00019
   3       0.00006     0.00000    -0.00000    -0.00017    -0.00047     0.00088
   4      -0.00002    -0.00000    -0.00000    -0.00011     0.00092     0.00048
   5      -0.00000     0.00164     0.00085     0.00000    -0.00000     0.00000
   6       0.00004     0.00000    -0.00000    -0.00014    -0.00020     0.00070
   7       0.00002     0.00000     0.00000     0.00006    -0.00072    -0.00020
   8       0.00001    -0.00000    -0.00000    -0.00001    -0.00003     0.00007
   9       0.00000    -0.00073    -0.00038    -0.00000     0.00000    -0.00000
  10      -0.00000    -0.00000     0.00000     0.00000     0.00006    -0.00002
  11       0.00010     0.00000    -0.00000    -0.00005    -0.00175     0.00041
  12       0.00007     0.00000    -0.00000    -0.00036     0.00042     0.00171
  13       0.31446     0.00000     0.00000    -0.00001    -0.00003     0.00004
  14      -0.00000    -0.00121    -0.00063     0.00000    -0.00000     0.00000
  15      -0.00000     0.00111     0.00058     0.00000    -0.00000     0.00000
  16       0.00002    -0.00000    -0.00000     0.24232    -0.18192     0.08500
  17      -0.00002     0.00000    -0.00000     0.14974     0.25322     0.11269
  18       0.00004    -0.00000    -0.00000    -0.13323    -0.04636     0.28183
  19      -0.00000    -0.00011    -0.00006     0.00000     0.00000     0.00000
  20      -0.00000     0.00001    -0.00004     0.00000     0.00000     0.00000
  21       0.00000     0.00001    -0.00001     0.00000     0.00000    -0.00000
  22      -0.00007     0.00000    -0.00000     0.00006     0.00103    -0.00043
  23       0.00006    -0.00000     0.00000    -0.00044     0.00074     0.00182
  24       0.00010    -0.00000     0.00000    -0.00007    -0.00156     0.00059
  25       0.53358    -0.00000    -0.00000    -0.00002    -0.00012     0.00013
  26      -0.00000     0.75473     0.00037    -0.00000    -0.00000     0.00000
  27      -0.00000     0.00037     0.75421     0.00000    -0.00000     0.00000
  28      -0.00002    -0.00000     0.00000     0.53379    -0.00024    -0.00070
  29      -0.00012    -0.00000    -0.00000    -0.00024     0.53634    -0.00006
  30       0.00013     0.00000     0.00000    -0.00070    -0.00006     0.53617
  31      -0.00000     0.00000    -0.00000    -0.00000    -0.00000     0.00000
  32      -0.00000     0.00001     0.00000     0.00000    -0.00000     0.00000
  33       0.00000    -0.00001     0.00001    -0.00000     0.00000    -0.00000
  34       0.00000     0.00000    -0.00000     0.00011    -0.00033    -0.00028
  35       0.00011    -0.00000     0.00000    -0.00067     0.00017     0.00240
  36      -0.00012     0.00000     0.00000    -0.00015     0.00248    -0.00025
  37       0.00000    -0.00001    -0.00003    -0.00000    -0.00000     0.00000
  38       0.00000     0.00004    -0.00001     0.00000     0.00000     0.00000
[...]
  40       0.00000     0.00000     0.00000     0.00001     0.00000    -0.00000
  41      -0.00001     0.00000     0.00000    -2.01900     6.88432     0.00000
  42       0.00000    -0.00000     0.00000     0.00037     0.00010     0.00000
  43      -0.00001     0.00000     0.00000    -2.01115     6.88644     0.00000
  44       0.00001    -0.00000    -0.00001    -0.92606     1.59608     0.00000
  45       0.00000     0.00000     0.00000     0.00010     0.00003    -0.00000
  46      -0.00000    -0.00000    -0.00000    -0.00000    -0.00000     0.00000
  47       0.00001    -0.00000    -0.00000    -0.92381     1.59681     0.00000
  48      -0.00000     0.00000    -0.00000    -0.00010    -0.00003    -0.00000
  49       0.00001    -0.00000    -0.00001    -0.92606     1.59608     0.00000
  50      -2.56818    -2.78565    -0.08382     0.00001     0.00229     9.72916
  51       0.12067     0.00075    -3.77102     0.00007    -0.00054    -0.12433
  52       2.78428    -2.56953     0.08780    -0.00001    -0.00565     3.95211
  53      -2.59591    -2.81579    -0.08666     0.00001     0.00229     9.72680
  54       0.00263     0.00017     0.00013    -0.00000     0.00000     0.00007
  55      -2.56821    -2.78562    -0.08382     0.00001     0.00229     9.72916
  56       0.12323     0.00211    -3.81365     0.00007    -0.00054    -0.12420
  57       2.81432    -2.59737     0.09078    -0.00001    -0.00565     3.95115
  58       0.12051     0.00338    -3.77103     0.00007    -0.00054    -0.12418
  59       2.78425    -2.56956     0.08780    -0.00001    -0.00565     3.95211
  60       0.98218     1.06534     0.03163    -0.00001     0.00027     1.15291
  61      -0.04619    -0.00032     1.42303     0.00004    -0.00008    -0.01466
  62      -1.06482     0.98269    -0.03313     0.00002    -0.00067     0.46833
  63       0.99199     1.07601     0.03260    -0.00001     0.00027     1.15421
  64      -0.00093    -0.00006    -0.00005    -0.00000    -0.00000    -0.00004
  65       0.98219     1.06533     0.03163    -0.00001     0.00027     1.15291
  66      -0.04709    -0.00081     1.43753     0.00004    -0.00008    -0.01474
  67      -1.07545     0.99254    -0.03415     0.00002    -0.00067     0.46886
  68      -0.04613    -0.00126     1.42304     0.00004    -0.00008    -0.01475
  69      -1.06481     0.98270    -0.03313     0.00002    -0.00067     0.46833

           67          68          69  
       ----------- ----------- -----------
   1       0.00040     0.00002     0.99389
   2       0.00277     0.00014    14.25816
   3       0.01150     0.00068    32.26344
   4      -0.01014    -0.00066   -10.99293
   5      -0.00580    -0.00024    24.18908
   6      -0.00964    -0.00091    21.52894
   7      -0.00080    -0.00010     1.56796
   8      -0.90242     0.05334     0.00000
   9       0.07184     2.39979     0.00001
  10       2.22379    -0.05588    -0.00000
  11     -12.67370     0.74911     0.00001
  12       1.00887    33.70320     0.00008
  13      31.23136    -0.78473    -0.00003
  14     -11.55871     0.68320     0.00001
  15       0.92012    30.73754     0.00007
  16      28.48373    -0.71568    -0.00003
  17       7.20003    -0.42560    -0.00001
  18      -0.57315   -19.14815    -0.00005
  19     -17.74279     0.44584     0.00002
  20       0.59262    -0.03509     0.00000
  21      -0.04717    -1.57884    -0.00000
  22      -1.46038     0.03676    -0.00000
  23      -0.04591     0.00272    -0.00000
  24       0.00365     0.12219     0.00000
  25       0.11314    -0.00285     0.00000
  26       0.00001     0.00004   -16.16905
  27      -0.00000     0.00000     0.00000
  28       0.00000    -0.00000    -0.00000
  29       0.00001     0.00004   -16.16904
  30       0.00000    -0.00000    -0.00000
  31       0.00001     0.00004   -16.16905
  32       0.00016     0.00000   -11.15719
  33       0.00000    -0.00000    -0.00000
  34      -0.00000     0.00000     0.00000
  35       0.00016     0.00000   -11.15721
  36      -0.00000     0.00000     0.00000
  37       0.00016     0.00000   -11.15719
  38       0.00401     0.00033   -10.31866
  39      -0.00000     0.00000     0.00000
  40       0.00000    -0.00000    -0.00000
  41       0.00400     0.00033   -10.31866
  42       0.00000    -0.00000    -0.00000
  43       0.00401     0.00033   -10.31866
  44       0.00093     0.00010    -1.90756
  45       0.00000    -0.00000     0.00000
  46      -0.00000     0.00000    -0.00000
  47       0.00093     0.00010    -1.90755
  48      -0.00000     0.00000    -0.00000
  49       0.00093     0.00010    -1.90756
  50      -3.94717     0.23334     0.00000
  51       0.31425    10.49801     0.00003
  52       9.72688    -0.24443    -0.00001
  53      -3.94622     0.23318     0.00000
  54      -0.00015     0.00001    -0.00000
  55      -3.94717     0.23334     0.00000
  56       0.31413    10.49558     0.00003
  57       9.72452    -0.24426    -0.00001
  58       0.31432    10.49801     0.00003
  59       9.72688    -0.24443    -0.00001
  60      -0.46774     0.02768    -0.00000
  61       0.03721     1.24530     0.00000
  62       1.15264    -0.02899     0.00000
  63      -0.46827     0.02778    -0.00000
  64       0.00008    -0.00000     0.00000
  65      -0.46775     0.02768    -0.00000
  66       0.03728     1.24676     0.00000
  67       1.15394    -0.02910     0.00000
  68       0.03717     1.24530     0.00000
  69       1.15264    -0.02899     0.00000
  int_init: cando_txs set to always be  F
                                NWChem TDDFT Module
                                -------------------


            General Information
            -------------------
           No. of orbitals :     138
            Alpha orbitals :      69
             Beta orbitals :      69
        Alpha frozen cores :       0
         Beta frozen cores :       0
     Alpha frozen virtuals :       0
      Beta frozen virtuals :       0
         Spin multiplicity :       2
    Number of AO functions :      69
        Use of symmetry is : off
      Symmetry adaption is : off
         Schwarz screening :  0.10D-07

              XC Information
              --------------
              Hartree-Fock (Exact) Exchange   1.00          
              LC-wPBE(h)Exchange Functional   1.00          
     Perdew 1991 LDA Correlation Functional   1.00 local    
    PerdewBurkeErnz. Correlation Functional   1.00 non-local
           Alpha           :  0.00
           Beta            :  1.00
           Gamma           :  0.23

             TDDFT Information
             -----------------
          Calculation type : TDDFT             
         Wavefunction type : Unrestricted
          No. of electrons :      31
           Alpha electrons :      16
            Beta electrons :      15
              No. of roots :       5
          Max subspacesize :    5000
            Max iterations :     100
               Target root :       1
           Target symmetry : none
      Symmetry restriction : off
                 Algorithm : Optimal
        Davidson threshold :  0.10D-03

            Memory Information
            ------------------
          Available GA space size is       52428790478 doubles
          Available MA space size is        4194421852 doubles
          Length of a trial vector is          848     810
          Algorithm : Incore multiple tensor contraction
          Estimated peak GA usage is          33976428 doubles
          Estimated peak MA usage is             18000 doubles

    5 smallest eigenvalue differences (eV) 
--------------------------------------------------------
  No. Spin  Occ  Vir  Irrep   E(Occ)    E(Vir)   E(Diff)
--------------------------------------------------------
    1    1   16   17 a        -0.201    -0.014     5.098
    2    1   16   18 a        -0.201    -0.014     5.098
    3    1   16   19 a        -0.201     0.019     5.992
    4    1   16   20 a        -0.201     0.050     6.835
    5    1   16   21 a        -0.201     0.052     6.880
--------------------------------------------------------

  Entering Davidson iterations
  Unrestricted

  Iter   NTrls   NConv    DeltaV     DeltaE      Time   
  ----  ------  ------  ---------  ---------  --------- 
    1      5       0     0.59E-01   0.10+100        9.9
    2     15       0     0.39E-01   0.11E-01       12.4
    3     25       0     0.76E-02   0.35E-02       12.4
    4     33       0     0.12E-02   0.25E-04       11.4
    5     41       4     0.22E-03   0.34E-06       11.4
    6     43       5     0.84E-04   0.22E-07        8.6
  ----  ------  ------  ---------  ---------  --------- 
  Convergence criterion met

  Ground state a       -1924.566331666318 a.u.
  <S2> =   0.7546

  ----------------------------------------------------------------------------
  Root   1         a              0.000136794 a.u.                0.0037 eV 
  <S2> =   0.7549
  ----------------------------------------------------------------------------
     Transition Moments    X -0.00000   Y  0.00000   Z -0.00000
     Transition Moments   XX -0.59003  XY-13.27326  XZ  0.01370
     Transition Moments   YY -0.02874  YZ-13.28739  ZZ  0.61877
     Dipole Oscillator Strength                    0.0000000000
     Electric Quadrupole                           0.0000000000
     Magnetic Dipole                               0.0000000000
     Total Oscillator Strength                     0.0000000000

     Occ.   15 alpha a   ---  Virt.   25 alpha a    0.13627 X
     Occ.   15 alpha a   ---  Virt.   25 alpha a    0.13598 Y
     Occ.   15 alpha a   ---  Virt.   34 alpha a    0.13272 X
     Occ.   15 alpha a   ---  Virt.   34 alpha a    0.13256 Y
     Occ.   16 alpha a   ---  Virt.   17 alpha a    3.49028 X
     Occ.   16 alpha a   ---  Virt.   17 alpha a    3.35152 Y
     Occ.   16 alpha a   ---  Virt.   18 alpha a    0.12266 X
     Occ.   16 alpha a   ---  Virt.   18 alpha a    0.11778 Y
     Occ.   16 alpha a   ---  Virt.   21 alpha a    0.77186 X
     Occ.   16 alpha a   ---  Virt.   21 alpha a    0.74269 Y
     Occ.   16 alpha a   ---  Virt.   29 alpha a   -0.26050 X
     Occ.   16 alpha a   ---  Virt.   29 alpha a   -0.25080 Y
     Occ.   15 beta  a   ---  Virt.   27 beta  a   -0.08571 X
     Occ.   15 beta  a   ---  Virt.   27 beta  a   -0.08565 Y
     Occ.   15 beta  a   ---  Virt.   36 beta  a   -0.16993 X
     Occ.   15 beta  a   ---  Virt.   36 beta  a   -0.16985 Y
     Occ.   15 beta  a   ---  Virt.   52 beta  a   -0.08476 X
     Occ.   15 beta  a   ---  Virt.   52 beta  a   -0.08474 Y
  ----------------------------------------------------------------------------
  Root   2         a              0.000136795 a.u.                0.0037 eV 
  <S2> =   0.7549
  ----------------------------------------------------------------------------
     Transition Moments    X -0.00000   Y -0.00000   Z  0.00000
     Transition Moments   XX -0.59039  XY-13.26768  XZ  0.60409
     Transition Moments   YY  1.20814  YZ 13.25161  ZZ -0.61775
     Dipole Oscillator Strength                    0.0000000000
     Electric Quadrupole                           0.0000000000
     Magnetic Dipole                               0.0000000000
     Total Oscillator Strength                     0.0000000000

     Occ.   15 alpha a   ---  Virt.   24 alpha a    0.13627 X
     Occ.   15 alpha a   ---  Virt.   24 alpha a    0.13598 Y
     Occ.   15 alpha a   ---  Virt.   33 alpha a    0.13274 X
     Occ.   15 alpha a   ---  Virt.   33 alpha a    0.13257 Y
     Occ.   16 alpha a   ---  Virt.   17 alpha a   -0.12265 X
     Occ.   16 alpha a   ---  Virt.   17 alpha a   -0.11778 Y
     Occ.   16 alpha a   ---  Virt.   18 alpha a    3.49026 X
     Occ.   16 alpha a   ---  Virt.   18 alpha a    3.35150 Y
     Occ.   16 alpha a   ---  Virt.   22 alpha a    0.77186 X
     Occ.   16 alpha a   ---  Virt.   22 alpha a    0.74268 Y
     Occ.   16 alpha a   ---  Virt.   30 alpha a   -0.26050 X
     Occ.   16 alpha a   ---  Virt.   30 alpha a   -0.25080 Y
     Occ.   15 beta  a   ---  Virt.   26 beta  a   -0.08572 X
     Occ.   15 beta  a   ---  Virt.   26 beta  a   -0.08565 Y
     Occ.   15 beta  a   ---  Virt.   35 beta  a   -0.16993 X
     Occ.   15 beta  a   ---  Virt.   35 beta  a   -0.16984 Y
     Occ.   15 beta  a   ---  Virt.   51 beta  a   -0.08475 X
     Occ.   15 beta  a   ---  Virt.   51 beta  a   -0.08474 Y
  ----------------------------------------------------------------------------
  Root   3         a              0.104048494 a.u.                2.8313 eV 
  <S2> =   0.7569
  ----------------------------------------------------------------------------
     Transition Moments    X -0.03018   Y -1.35779   Z  0.03161
     Transition Moments   XX -0.00001  XY -0.00000  XZ  0.00000
     Transition Moments   YY -0.00001  YZ  0.00001  ZZ -0.00002
     Dipole Oscillator Strength                    0.1280145131
     Electric Quadrupole                           0.0000000000
     Magnetic Dipole                               0.0000000000
     Total Oscillator Strength                     0.1280145131

     Occ.   16 alpha a   ---  Virt.   19 alpha a    0.91669 X
     Occ.   16 alpha a   ---  Virt.   23 alpha a   -0.39121 X
     Occ.   16 alpha a   ---  Virt.   32 alpha a    0.06801 X
  ----------------------------------------------------------------------------
  Root   4         a              0.140020106 a.u.                3.8101 eV 
  <S2> =   0.7552
  ----------------------------------------------------------------------------
     Transition Moments    X -0.00000   Y  0.00003   Z  0.00000
     Transition Moments   XX -0.07057  XY -1.58594  XZ  0.07299
     Transition Moments   YY  0.14605  YZ  1.61917  ZZ -0.07548
     Dipole Oscillator Strength                    0.0000000001
     Electric Quadrupole                           0.0000000754
     Magnetic Dipole                               0.0000000000
     Total Oscillator Strength                     0.0000000755

     Occ.   16 alpha a   ---  Virt.   18 alpha a    0.22018 X
     Occ.   16 alpha a   ---  Virt.   22 alpha a   -0.95301 X
     Occ.   16 alpha a   ---  Virt.   30 alpha a    0.20263 X
  ----------------------------------------------------------------------------
  Root   5         a              0.140020108 a.u.                3.8101 eV 
  <S2> =   0.7552
  ----------------------------------------------------------------------------
     Transition Moments    X -0.00000   Y -0.00001   Z -0.00000
     Transition Moments   XX -0.07209  XY -1.62176  XZ  0.00246
     Transition Moments   YY -0.00187  YZ -1.58836  ZZ  0.07397
     Dipole Oscillator Strength                    0.0000000000
     Electric Quadrupole                           0.0000000754
     Magnetic Dipole                               0.0000000000
     Total Oscillator Strength                     0.0000000754

     Occ.   16 alpha a   ---  Virt.   17 alpha a    0.22018 X
     Occ.   16 alpha a   ---  Virt.   21 alpha a   -0.95301 X
     Occ.   16 alpha a   ---  Virt.   29 alpha a    0.20264 X

              Target root =      1
          Target symmetry = none
      Ground state energy =  -1924.566331666318
        Excitation energy =      0.000136793808
     Excited state energy =  -1924.566194872510

  stored tddft:energy   -1924.5661948725096     

 Task  times  cpu:       78.3s     wall:       90.6s


                                NWChem Input Module
                                -------------------


 Summary of allocated global arrays
-----------------------------------
  No active global arrays


MA_summarize_allocated_blocks: starting scan ...
heap block 'gridpts', handle 97, address 0x12e3d1a8:
	type of elements:		double precision
	number of elements:		1048456624
	address of client space:	0x12e3d200
	index for client space:		11457943
	total number of bytes:		8387653088
MA_summarize_allocated_blocks: scan completed: 1 heap block, 0 stack blocks
MA usage statistics:

	allocation statistics:
					      heap	     stack
					      ----	     -----
	current number of blocks	         1	         0
	maximum number of blocks	        18	        54
	current total bytes		8387653088	         0
	maximum total bytes		8388447712	 109417528
	maximum total K-bytes		   8388448	    109418
	maximum total M-bytes		      8389	       110


                                     CITATION
                                     --------
                Please cite the following reference when publishing
                           results obtained with NWChem:

          E. Apra, E. J. Bylaska, W. A. de Jong, N. Govind, K. Kowalski,
       T. P. Straatsma, M. Valiev, H. J. J. van Dam, Y. Alexeev, J. Anchell,
       V. Anisimov, F. W. Aquino, R. Atta-Fynn, J. Autschbach, N. P. Bauman,
     J. C. Becca, D. E. Bernholdt, K. Bhaskaran-Nair, S. Bogatko, P. Borowski,
         J. Boschen, J. Brabec, A. Bruner, E. Cauet, Y. Chen, G. N. Chuev,
      C. J. Cramer, J. Daily, M. J. O. Deegan, T. H. Dunning Jr., M. Dupuis,
   K. G. Dyall, G. I. Fann, S. A. Fischer, A. Fonari, H. Fruchtl, L. Gagliardi,
      J. Garza, N. Gawande, S. Ghosh, K. Glaesemann, A. W. Gotz, J. Hammond,
       V. Helms, E. D. Hermes, K. Hirao, S. Hirata, M. Jacquelin, L. Jensen,
   B. G. Johnson, H. Jonsson, R. A. Kendall, M. Klemm, R. Kobayashi, V. Konkov,
      S. Krishnamoorthy, M. Krishnan, Z. Lin, R. D. Lins, R. J. Littlefield,
      A. J. Logsdail, K. Lopata, W. Ma, A. V. Marenich, J. Martin del Campo,
   D. Mejia-Rodriguez, J. E. Moore, J. M. Mullin, T. Nakajima, D. R. Nascimento,
    J. A. Nichols, P. J. Nichols, J. Nieplocha, A. Otero-de-la-Roza, B. Palmer,
    A. Panyala, T. Pirojsirikul, B. Peng, R. Peverati, J. Pittner, L. Pollack,
   R. M. Richard, P. Sadayappan, G. C. Schatz, W. A. Shelton, D. W. Silverstein,
   D. M. A. Smith, T. A. Soares, D. Song, M. Swart, H. L. Taylor, G. S. Thomas,
            V. Tipparaju, D. G. Truhlar, K. Tsemekhman, T. Van Voorhis,
      A. Vazquez-Mayagoitia, P. Verma, O. Villa, A. Vishnu, K. D. Vogiatzis,
        D. Wang, J. H. Weare, M. J. Williamson, T. L. Windus, K. Wolinski,
        A. T. Wong, Q. Wu, C. Yang, Q. Yu, M. Zacharias, Z. Zhang, Y. Zhao,
                                and R. J. Harrison
                        "NWChem: Past, present, and future
                         J. Chem. Phys. 152, 184102 (2020)
                               doi:10.1063/5.0004997

                                      AUTHORS
                                      -------
  E. Apra, E. J. Bylaska, N. Govind, K. Kowalski, M. Valiev, D. Mejia-Rodriguez,
       A. Kunitsa, N. P. Bauman, A. Panyala, W. A. de Jong, T. P. Straatsma,
   H. J. J. van Dam, D. Wang, T. L. Windus, J. Hammond, J. Autschbach, A. Woods,
    K. Bhaskaran-Nair, J. Brabec, K. Lopata, S. A. Fischer, S. Krishnamoorthy,
     M. Jacquelin, W. Ma, M. Klemm, O. Villa, Y. Chen, V. Anisimov, F. Aquino,
     S. Hirata, M. T. Hackler, E. Hermes, L. Jensen, J. E. Moore, J. C. Becca,
      V. Konjkov, T. Risthaus, M. Malagoli, A. Marenich, A. Otero-de-la-Roza,
        J. Mullin, P. Nichols, R. Peverati, J. Pittner, Y. Zhao, P.-D. Fan,
        A. Fonari, M. J. Williamson, R. J. Harrison, J. R. Rehr, M. Dupuis,
     D. Silverstein, D. M. A. Smith, J. Nieplocha, V. Tipparaju, M. Krishnan,
     B. E. Van Kuiken, A. Vazquez-Mayagoitia, M. Swart, Q. Wu, T. Van Voorhis,
     A. A. Auer, M. Nooijen, L. D. Crosby, E. Brown, G. Cisneros, G. I. Fann,
   H. Fruchtl, J. Garza, K. Hirao, R. A. Kendall, J. A. Nichols, K. Tsemekhman,
    K. Wolinski, J. Anchell, D. E. Bernholdt, P. Borowski, T. Clark, D. Clerc,
   H. Dachsel, M. J. O. Deegan, K. Dyall, D. Elwood, E. Glendening, M. Gutowski,
   A. C. Hess, J. Jaffe, B. G. Johnson, J. Ju, R. Kobayashi, R. Kutteh, Z. Lin,
   R. Littlefield, X. Long, B. Meng, T. Nakajima, S. Niu, L. Pollack, M. Rosing,
   K. Glaesemann, G. Sandrone, M. Stave, H. Taylor, G. Thomas, J. H. van Lenthe,
                               A. T. Wong, Z. Zhang.

 Total times  cpu:       78.3s     wall:       91.0s
