 argument  1 = /home/aditisingh4812/nw_chem/nwchem-run/nwchem-run/tddft/open/open_atom/geom-MOL/ga.nw
                                         
                                         


             Northwest Computational Chemistry Package (NWChem) 7.2.3
             --------------------------------------------------------


                    Environmental Molecular Sciences Laboratory
                       Pacific Northwest National Laboratory
                                Richland, WA 99352

                              Copyright (c) 1994-2022
                       Pacific Northwest National Laboratory
                            Battelle Memorial Institute

             NWChem is an open-source computational chemistry package
                        distributed under the terms of the
                      Educational Community License (ECL) 2.0
             A copy of the license is included with this distribution
                              in the LICENSE.TXT file

                                  ACKNOWLEDGMENT
                                  --------------

            This software and its documentation were developed at the
            EMSL at Pacific Northwest National Laboratory, a multiprogram
            national laboratory, operated for the U.S. Department of Energy
            by Battelle under Contract Number DE-AC05-76RL01830. Support
            for this work was provided by the Department of Energy Office
            of Biological and Environmental Research, Office of Basic
            Energy Sciences, and the Office of Advanced Scientific Computing.


           Job information
           ---------------

    hostname        = p16
    program         = /home/aditisingh4812/nw_chem/nwchem-7.2.3-release.revision-d690e065-srconly.2024-08-27/nwchem-7.2.3/bin/LINUX64/nwchem
    date            = Tue Apr 15 00:08:59 2025

    compiled        = Mon_Apr_07_18:51:54_2025
    source          = /home/aditisingh4812/nw_chem/nwchem-7.2.3-release.revision-d690e065-srconly.2024-08-27/nwchem-7.2.3
    nwchem branch   = 7.2.3
    nwchem revision = d690e065
    ga revision     = 5.8.0
    use scalapack   = F
    input           = /home/aditisingh4812/nw_chem/nwchem-run/nwchem-run/tddft/open/open_atom/geom-MOL/ga.nw
    prefix          = ga.
    data base       = ./ga.db
    status          = startup
    nproc           =        8
    time left       =     -1s



           Memory information
           ------------------

    heap     = 2621439998 doubles =  20000.0 Mbytes
    stack    = 2621439995 doubles =  20000.0 Mbytes
    global   = 6553600000 doubles =  50000.0 Mbytes (distinct from heap & stack)
    total    = ********** doubles =  90000.0 Mbytes
    verify   = yes
    hardfail = no 


           Directory information
           ---------------------

  0 permanent = .
  0 scratch   = .




                                NWChem Input Module
                                -------------------



 Scaling coordinates for geometry "geometry" by  1.889725989
 (inverse scale =  0.529177249)



                             Geometry "geometry" -> ""
                             -------------------------

 Output coordinates in angstroms (scale by  1.889725989 to convert to a.u.)

  No.       Tag          Charge          X              Y              Z
 ---- ---------------- ---------- -------------- -------------- --------------
    1 Ga                  31.0000     0.00000000     0.00000000     0.00000000

      Atomic Mass 
      ----------- 

      Ga                68.925700


 Effective nuclear repulsion energy (a.u.)       0.0000000000

            Nuclear Dipole moment (a.u.) 
            ----------------------------
        X                 Y               Z
 ---------------- ---------------- ----------------
     0.0000000000     0.0000000000     0.0000000000


            XYZ format geometry
            -------------------
     1
 geometry
 Ga                    0.00000000     0.00000000     0.00000000



 Summary of "ao basis" -> "" (cartesian)
 ------------------------------------------------------------------------------
       Tag                 Description            Shells   Functions and Types
 ---------------- ------------------------------  ------  ---------------------
 *                        aug-cc-pVTZ                 on all atoms 


  pbe96 is a nonlocal functional; adding pw91lda local functional. 

                                 NWChem DFT Module
                                 -----------------


                      Basis "ao basis" -> "ao basis" (cartesian)
                      -----
  Ga (Gallium)
  ------------
            Exponent  Coefficients 
       -------------- ---------------------------------------------------------
  1 S  6.55815730E+06  0.000008
  1 S  9.82025340E+05  0.000062
  1 S  2.23467690E+05  0.000327
  1 S  6.32882910E+04  0.001379
  1 S  2.06429400E+04  0.004999
  1 S  7.45052240E+03  0.016061
  1 S  2.90507440E+03  0.046012
  1 S  1.20421000E+03  0.115222
  1 S  5.24304540E+02  0.237392
  1 S  2.37465630E+02  0.353199
  1 S  1.10578660E+02  0.291550
  1 S  5.13746240E+01  0.081213
  1 S  2.44408460E+01  0.000766
  1 S  1.17685910E+01  0.001612
  1 S  5.34211900E+00 -0.000753
  1 S  2.49503600E+00  0.000313
  1 S  1.09877300E+00 -0.000131
  1 S  2.60180000E-01  0.000051

  2 S  6.55815730E+06 -0.000003
  2 S  9.82025340E+05 -0.000019
  2 S  2.23467690E+05 -0.000101
  2 S  6.32882910E+04 -0.000428
  2 S  2.06429400E+04 -0.001558
  2 S  7.45052240E+03 -0.005047
  2 S  2.90507440E+03 -0.014806
  2 S  1.20421000E+03 -0.038948
  2 S  5.24304540E+02 -0.089683
  2 S  2.37465630E+02 -0.166408
  2 S  1.10578660E+02 -0.200401
  2 S  5.13746240E+01  0.011494
  2 S  2.44408460E+01  0.495813
  2 S  1.17685910E+01  0.529555
  2 S  5.34211900E+00  0.111019
  2 S  2.49503600E+00 -0.000700
  2 S  1.09877300E+00  0.002228
  2 S  2.60180000E-01 -0.000501

  3 S  6.55815730E+06  0.000001
  3 S  9.82025340E+05  0.000007
  3 S  2.23467690E+05  0.000039
  3 S  6.32882910E+04  0.000163
  3 S  2.06429400E+04  0.000594
  3 S  7.45052240E+03  0.001929
  3 S  2.90507440E+03  0.005669
  3 S  1.20421000E+03  0.015028
  3 S  5.24304540E+02  0.035022
  3 S  2.37465630E+02  0.067114
  3 S  1.10578660E+02  0.085016
  3 S  5.13746240E+01 -0.004721
  3 S  2.44408460E+01 -0.301674
  3 S  1.17685910E+01 -0.482549
  3 S  5.34211900E+00  0.089170
  3 S  2.49503600E+00  0.728783
  3 S  1.09877300E+00  0.428854
  3 S  2.60180000E-01  0.020725

  4 S  6.55815730E+06  0.000000
  4 S  9.82025340E+05  0.000002
  4 S  2.23467690E+05  0.000009
  4 S  6.32882910E+04  0.000038
  4 S  2.06429400E+04  0.000138
  4 S  7.45052240E+03  0.000449
  4 S  2.90507440E+03  0.001319
  4 S  1.20421000E+03  0.003502
  4 S  5.24304540E+02  0.008167
  4 S  2.37465630E+02  0.015734
  4 S  1.10578660E+02  0.020028
  4 S  5.13746240E+01 -0.001014
  4 S  2.44408460E+01 -0.075016
  4 S  1.17685910E+01 -0.125798
  4 S  5.34211900E+00  0.030086
  4 S  2.49503600E+00  0.248817
  4 S  1.09877300E+00  0.284371
  4 S  2.60180000E-01 -0.311059

  5 S  1.27079000E-01  1.000000

  6 S  5.44080000E-02  1.000000

  7 S  1.43980000E-02  1.000000

  8 P  8.05016740E+03  0.000317
  8 P  1.90753610E+03  0.002765
  8 P  6.18627460E+02  0.015120
  8 P  2.35324170E+02  0.059958
  8 P  9.88996460E+01  0.173312
  8 P  4.42482150E+01  0.341082
  8 P  2.06174290E+01  0.389697
  8 P  9.78051600E+00  0.183982
  8 P  4.44123800E+00  0.021890
  8 P  1.96404500E+00  0.001161
  8 P  8.33578000E-01  0.000274

  9 P  8.05016740E+03 -0.000120
  9 P  1.90753610E+03 -0.001049
  9 P  6.18627460E+02 -0.005810
  9 P  2.35324170E+02 -0.023435
  9 P  9.88996460E+01 -0.070827
  9 P  4.42482150E+01 -0.146551
  9 P  2.06174290E+01 -0.176966
  9 P  9.78051600E+00  0.036382
  9 P  4.44123800E+00  0.423285
  9 P  1.96404500E+00  0.495259
  9 P  8.33578000E-01  0.179743

 10 P  8.05016740E+03  0.000020
 10 P  1.90753610E+03  0.000169
 10 P  6.18627460E+02  0.000967
 10 P  2.35324170E+02  0.003780
 10 P  9.88996460E+01  0.011908
 10 P  4.42482150E+01  0.023569
 10 P  2.06174290E+01  0.031423
 10 P  9.78051600E+00 -0.013619
 10 P  4.44123800E+00 -0.073400
 10 P  1.96404500E+00 -0.126479
 10 P  8.33578000E-01  0.015858

 11 P  1.93445000E-01  1.000000

 12 P  5.61170000E-02  1.000000

 13 P  1.93000000E-02  1.000000

 14 D  2.44147410E+02  0.002027
 14 D  7.30675950E+01  0.016509
 14 D  2.75920810E+01  0.070382
 14 D  1.15465180E+01  0.191143
 14 D  5.04862800E+00  0.325409
 14 D  2.17846500E+00  0.367820
 14 D  9.00253000E-01  0.274469

 15 D  3.37327000E-01  1.000000

 16 D  1.16900000E-01  1.000000

 17 D  3.87000000E-02  1.000000

 18 F  2.88100000E-01  1.000000

 19 F  9.80000000E-02  1.000000



 Summary of "ao basis" -> "ao basis" (cartesian)
 ------------------------------------------------------------------------------
       Tag                 Description            Shells   Functions and Types
 ---------------- ------------------------------  ------  ---------------------
 Ga                       aug-cc-pVTZ               19       69   7s6p4d2f




 Summary of "ao basis" -> "ao basis" (cartesian)
 ------------------------------------------------------------------------------
       Tag                 Description            Shells   Functions and Types
 ---------------- ------------------------------  ------  ---------------------
 Ga                       aug-cc-pVTZ               19       69   7s6p4d2f




                         Geometry "geometry" -> "geometry"
                         ---------------------------------

 Output coordinates in angstroms (scale by  1.889725989 to convert to a.u.)

  No.       Tag          Charge          X              Y              Z
 ---- ---------------- ---------- -------------- -------------- --------------
    1 Ga                  31.0000     0.00000000     0.00000000     0.00000000

      Atomic Mass 
      ----------- 

      Ga                68.925700


 Effective nuclear repulsion energy (a.u.)       0.0000000000

            Nuclear Dipole moment (a.u.) 
            ----------------------------
        X                 Y               Z
 ---------------- ---------------- ----------------
     0.0000000000     0.0000000000     0.0000000000


                      Basis "ao basis" -> "ao basis" (cartesian)
                      -----
  Ga (Gallium)
  ------------
            Exponent  Coefficients 
       -------------- ---------------------------------------------------------
  1 S  6.55815730E+06  0.738901
  1 S  9.82025340E+05  1.382905
  1 S  2.23467690E+05  2.395349
  1 S  6.32882910E+04  3.922768
  1 S  2.06429400E+04  6.136175
  1 S  7.45052240E+03  9.179288
  1 S  2.90507440E+03 12.976356
  1 S  1.20421000E+03 16.787016
  1 S  5.24304540E+02 18.538043
  1 S  2.37465630E+02 15.227542
  1 S  1.10578660E+02  7.085597
  1 S  5.13746240E+01  1.110699
  1 S  2.44408460E+01  0.005997
  1 S  1.17685910E+01  0.007302
  1 S  5.34211900E+00 -0.001886
  1 S  2.49503600E+00  0.000443
  1 S  1.09877300E+00 -0.000100
  1 S  2.60180000E-01  0.000013

  2 S  6.55815730E+06 -0.230913
  2 S  9.82025340E+05 -0.429113
  2 S  2.23467690E+05 -0.742799
  2 S  6.32882910E+04 -1.217475
  2 S  2.06429400E+04 -1.912600
  2 S  7.45052240E+03 -2.884610
  2 S  2.90507440E+03 -4.175575
  2 S  1.20421000E+03 -5.674615
  2 S  5.24304540E+02 -7.003597
  2 S  2.37465630E+02 -7.174573
  2 S  1.10578660E+02 -4.870524
  2 S  5.13746240E+01  0.157205
  2 S  2.44408460E+01  3.884434
  2 S  1.17685910E+01  2.398152
  2 S  5.34211900E+00  0.278037
  2 S  2.49503600E+00 -0.000990
  2 S  1.09877300E+00  0.001704
  2 S  2.60180000E-01 -0.000130

  3 S  6.55815730E+06  0.082889
  3 S  9.82025340E+05  0.164056
  3 S  2.23467690E+05  0.282677
  3 S  6.32882910E+04  0.463070
  3 S  2.06429400E+04  0.727488
  3 S  7.45052240E+03  1.099476
  3 S  2.90507440E+03  1.594171
  3 S  1.20421000E+03  2.183242
  3 S  5.24304540E+02  2.727090
  3 S  2.37465630E+02  2.885219
  3 S  1.10578660E+02  2.060252
  3 S  5.13746240E+01 -0.064385
  3 S  2.44408460E+01 -2.356638
  3 S  1.17685910E+01 -2.178979
  3 S  5.34211900E+00  0.222674
  3 S  2.49503600E+00  1.028192
  3 S  1.09877300E+00  0.327084
  3 S  2.60180000E-01  0.005366

  4 S  6.55815730E+06  0.049777
  4 S  9.82025340E+05  0.101848
  4 S  2.23467690E+05  0.177650
  4 S  6.32882910E+04  0.291197
  4 S  2.06429400E+04  0.457086
  4 S  7.45052240E+03  0.691354
  4 S  2.90507440E+03  1.002208
  4 S  1.20421000E+03  1.374689
  4 S  5.24304540E+02  1.718610
  4 S  2.37465630E+02  1.827870
  4 S  1.10578660E+02  1.311628
  4 S  5.13746240E+01 -0.037354
  4 S  2.44408460E+01 -1.583629
  4 S  1.17685910E+01 -1.535070
  4 S  5.34211900E+00  0.203028
  4 S  2.49503600E+00  0.948634
  4 S  1.09877300E+00  0.586107
  4 S  2.60180000E-01 -0.217626

  5 S  1.27079000E-01  0.151693

  6 S  5.44080000E-02  0.080289

  7 S  1.43980000E-02  0.029624

  8 P  8.05016740E+03 34.444394
  8 P  1.90753610E+03 49.681517
  8 P  6.18627460E+02 66.495146
  8 P  2.35324170E+02 78.772142
  8 P  9.88996460E+01 77.048152
  8 P  4.42482150E+01 55.484116
  8 P  2.06174290E+01 24.403945
  8 P  9.78051600E+00  4.535937
  8 P  4.44123800E+00  0.201168
  8 P  1.96404500E+00  0.003847
  8 P  8.33578000E-01  0.000311

  9 P  8.05016740E+03-13.096301
  9 P  1.90753610E+03-18.883222
  9 P  6.18627460E+02-25.592013
  9 P  2.35324170E+02-30.836546
  9 P  9.88996460E+01-31.536910
  9 P  4.42482150E+01-23.877324
  9 P  2.06174290E+01-11.099664
  9 P  9.78051600E+00  0.898394
  9 P  4.44123800E+00  3.896185
  9 P  1.96404500E+00  1.643986
  9 P  8.33578000E-01  0.204391

 10 P  8.05016740E+03 11.994591
 10 P  1.90753610E+03 16.746341
 10 P  6.18627460E+02 23.459700
 10 P  2.35324170E+02 27.399322
 10 P  9.88996460E+01 29.210491
 10 P  4.42482150E+01 21.155130
 10 P  2.06174290E+01 10.857860
 10 P  9.78051600E+00 -1.852637
 10 P  4.44123800E+00 -3.722007
 10 P  1.96404500E+00 -2.312892
 10 P  8.33578000E-01  0.099341

 11 P  1.93445000E-01  0.182868

 12 P  5.61170000E-02  0.038932

 13 P  1.93000000E-02  0.010254

 14 D  2.44147410E+02 52.120896
 14 D  7.30675950E+01 51.404465
 14 D  2.75920810E+01 39.866046
 14 D  1.15465180E+01 23.572987
 14 D  5.04862800E+00  9.435179
 14 D  2.17846500E+00  2.449998
 14 D  9.00253000E-01  0.389401

 15 D  3.37327000E-01  0.245753

 16 D  1.16900000E-01  0.038467

 17 D  3.87000000E-02  0.005558

 18 F  2.88100000E-01  0.089521

 19 F  9.80000000E-02  0.007911



    Basis function labels
    ---------------------
       No.  Atm El Type
       ---  --- -- ----
        1    1 Ga s          
        2    1 Ga s          
        3    1 Ga s          
        4    1 Ga s          
        5    1 Ga s          
        6    1 Ga s          
        7    1 Ga s          
        8    1 Ga px         
        9    1 Ga py         
       10    1 Ga pz         
       11    1 Ga px         
       12    1 Ga py         
       13    1 Ga pz         
       14    1 Ga px         
       15    1 Ga py         
       16    1 Ga pz         
       17    1 Ga px         
       18    1 Ga py         
       19    1 Ga pz         
       20    1 Ga px         
       21    1 Ga py         
       22    1 Ga pz         
       23    1 Ga px         
       24    1 Ga py         
       25    1 Ga pz         
       26    1 Ga dxx        
       27    1 Ga dxy        
       28    1 Ga dxz        
       29    1 Ga dyy        
       30    1 Ga dyz        
       31    1 Ga dzz        
       32    1 Ga dxx        
       33    1 Ga dxy        
       34    1 Ga dxz        
       35    1 Ga dyy        
       36    1 Ga dyz        
       37    1 Ga dzz        
       38    1 Ga dxx        
       39    1 Ga dxy        
       40    1 Ga dxz        
       41    1 Ga dyy        
       42    1 Ga dyz        
       43    1 Ga dzz        
       44    1 Ga dxx        
       45    1 Ga dxy        
       46    1 Ga dxz        
       47    1 Ga dyy        
       48    1 Ga dyz        
       49    1 Ga dzz        
       50    1 Ga fxxx       
       51    1 Ga fxxy       
       52    1 Ga fxxz       
       53    1 Ga fxyy       
       54    1 Ga fxyz       
       55    1 Ga fxzz       
       56    1 Ga fyyy       
       57    1 Ga fyyz       
       58    1 Ga fyzz       
       59    1 Ga fzzz       
       60    1 Ga fxxx       
       61    1 Ga fxxy       
       62    1 Ga fxxz       
       63    1 Ga fxyy       
       64    1 Ga fxyz       
       65    1 Ga fxzz       
       66    1 Ga fyyy       
       67    1 Ga fyyz       
       68    1 Ga fyzz       
       69    1 Ga fzzz       
  int_init: cando_txs set to always be  F

 Schwarz integral screening summary 
 ---------------------------------- 

        No. of atom pairs =       1
       No. of shell pairs =     190

 Atomic screening 

   value      no.     value      no.     value      no.     value      no.   
  -------- ------    -------- ------    -------- ------    -------- ------   
  0.00D+00      0    1.00D-13      0    1.00D-12      0    1.00D-11      0
  1.00D-10      0    1.00D-09      0    1.00D-08      0    1.00D-07      0
  1.00D-06      0    1.00D-05      0    1.00D-04      0    1.00D-03      0
  1.00D-02      0    1.00D-01      0    1.00D+00      0    1.00D+01      1


 Shell screening 

   value      no.     value      no.     value      no.     value      no.   
  -------- ------    -------- ------    -------- ------    -------- ------   
  0.00D+00      0    1.00D-13      0    1.00D-12      0    1.00D-11      0
  1.00D-10      0    1.00D-09      0    1.00D-08      0    1.00D-07      0
  1.00D-06      0    1.00D-05      3    1.00D-04      6    1.00D-03      9
  1.00D-02     22    1.00D-01     75    1.00D+00     73    1.00D+01      2


  Caching 1-el integrals 
  atom                     1  - neighbor  & S                     1   10.000000000000000       exp AB    1.4398000000000011E-002   1.4398000000000011E-002
 zmins =     0.014398000    0.014398000 lprod =   0 range =        27.43 acc   0.10D-07
 sh     0.000000000
  Center:                     1  Radial Pts. & Wghts. 
    1        0.000001619           1.2740201E-17
    2        0.000012955           3.2615024E-15
    3        0.000043724           8.3589501E-14
    4        0.000103642           8.3496703E-13
    5        0.000202427           4.9769368E-12
    6        0.000349797           2.1400851E-11
    7        0.000555474           7.3456763E-11
    8        0.000829179           2.1379746E-10
    9        0.001180639           5.4861527E-10
   10        0.001619585           1.2746303E-09
   11        0.002155753           2.7327168E-09
   12        0.002798886           5.4825899E-09
   13        0.003558738           1.0403519E-08
   14        0.004445069           1.8826589E-08
   15        0.005467654           3.2704601E-08
   16        0.006636281           5.4826286E-08
   17        0.007960753           8.9082121E-08
   18        0.009450891           1.4078965E-07
   19        0.011116538           2.1708686E-07
   20        0.012967558           3.2740292E-07
   21        0.015013841           4.8401620E-07
   22        0.017265306           7.0271027E-07
   23        0.019731903           1.0035395E-06
   24        0.022423615           1.4117168E-06
   25        0.025350464           1.9586362E-06
   26        0.028522513           2.6830456E-06
   27        0.031949869           3.6323837E-06
   28        0.035642687           4.8642991E-06
   29        0.039611175           6.4483680E-06
   30        0.043865598           8.4680299E-06
   31        0.048416281           1.1022762E-05
   32        0.053273614           1.4230515E-05
   33        0.058448056           1.8230429E-05
   34        0.063950144           2.3185866E-05
   35        0.069790491           2.9287773E-05
   36        0.075979798           3.6758413E-05
   37        0.082528855           4.5855500E-05
   38        0.089448550           5.6876756E-05
   39        0.096749871           7.0164950E-05
   40        0.104443918           8.6113440E-05
   41        0.112541902           1.0517227E-04
   42        0.121055159           1.2785488E-04
   43        0.129995154           1.5474544E-04
   44        0.139373485           1.8650693E-04
   45        0.149201897           2.2388995E-04
   46        0.159492285           2.6774243E-04
   47        0.170256705           3.1902013E-04
   48        0.181507382           3.7879826E-04
   49        0.193256715           4.4828406E-04
   50        0.205517295           5.2883063E-04
   51        0.218301906           6.2195192E-04
   52        0.231623539           7.2933920E-04
   53        0.245495404           8.5287894E-04
   54        0.259930939           9.9467235E-04
   55        0.274943820           1.1570567E-03
   56        0.290547978           1.3426285E-03
   57        0.306757606           1.5542689E-03
   58        0.323587177           1.7951711E-03
   59        0.341051453           2.0688709E-03
   60        0.359165505           2.3792788E-03
   61        0.377944722           2.7307166E-03
   62        0.397404833           3.1279558E-03
   63        0.417561919           3.5762605E-03
   64        0.438432432           4.0814338E-03
   65        0.460033214           4.6498684E-03
   66        0.482381513           5.2886022E-03
   67        0.505495010           6.0053787E-03
   68        0.529391831           6.8087126E-03
   69        0.554090578           7.7079628E-03
   70        0.579610346           8.7134108E-03
   71        0.605970751           9.8363472E-03
   72        0.633191956           1.1089166E-02
   73        0.661294697           1.2485469E-02
   74        0.690300313           1.4040178E-02
   75        0.720230776           1.5769659E-02
   76        0.751108724           1.7691860E-02
   77        0.782957496           1.9826461E-02
   78        0.815801166           2.2195035E-02
   79        0.849664583           2.4821232E-02
   80        0.884573411           2.7730977E-02
   81        0.920554173           3.0952688E-02
   82        0.957634297           3.4517518E-02
   83        0.995842162           3.8459621E-02
   84        1.035207154           4.2816442E-02
   85        1.075759716           4.7629045E-02
   86        1.117531414           5.2942468E-02
   87        1.160554991           5.8806122E-02
   88        1.204864440           6.5274226E-02
   89        1.250495075           7.2406293E-02
   90        1.297483603           8.0267676E-02
   91        1.345868209           8.8930158E-02
   92        1.395688645           9.8472627E-02
   93        1.446986320           1.0898181E-01
   94        1.499804403           1.2055311E-01
   95        1.554187931           1.3329153E-01
   96        1.610183925           1.4731268E-01
   97        1.667841516           1.6274398E-01
   98        1.727212081           1.7972590E-01
   99        1.788349387           1.9841346E-01
  100        1.851309750           2.1897782E-01
  101        1.916152206           2.4160818E-01
  102        1.982938696           2.6651376E-01
  103        2.051734269           2.9392623E-01
  104        2.122607295           3.2410229E-01
  105        2.195629709           3.5732671E-01
  106        2.270877266           3.9391572E-01
  107        2.348429824           4.3422086E-01
  108        2.428371656           4.7863340E-01
  109        2.510791784           5.2758941E-01
  110        2.595784356           5.8157546E-01
  111        2.683449049           6.4113526E-01
  112        2.773891519           7.0687726E-01
  113        2.867223900           7.7948339E-01
  114        2.963565347           8.5971912E-01
  115        3.063042648           9.4844523E-01
  116        3.165790889           1.0466313E+00
  117        3.271954211           1.1553718E+00
  118        3.381686640           1.2759039E+00
  119        3.495153021           1.4096300E+00
  120        3.612530061           1.5581424E+00
  121        3.734007508           1.7232537E+00
  122        3.859789469           1.9070322E+00
  123        3.990095909           2.1118438E+00
  124        4.125164339           2.3404026E+00
  125        4.265251748           2.5958307E+00
  126        4.410636798           2.8817310E+00
  127        4.561622338           3.2022741E+00
  128        4.718538299           3.5623047E+00
  129        4.881745025           3.9674711E+00
  130        5.051637147           4.4243838E+00
  131        5.228648075           4.9408118E+00
  132        5.413255266           5.5259254E+00
  133        5.605986411           6.1906011E+00
  134        5.807426745           6.9478033E+00
  135        6.018227743           7.8130703E+00
  136        6.239117518           8.8051337E+00
  137        6.470913343           9.9467179E+00
  138        6.714536841           1.1265580E+01
  139        6.971032553           1.2795877E+01
  140        7.241590826           1.4579979E+01
  141        7.527576293           1.6670916E+01
  142        7.830563663           1.9135696E+01
  143        8.152383193           2.2059901E+01
  144        8.495179177           2.5554135E+01
  145        8.861486177           2.9763220E+01
  146        9.254329907           3.4879594E+01
  147        9.677362953           4.1163234E+01
  148       10.135050896           4.8972025E+01
  149       10.632933077           5.8809356E+01
  150       11.177997095           7.1401149E+01
  151       11.779232312           8.7825214E+01
  152       12.448475968           1.0973822E+02
  153       13.201759763           1.3979528E+02
  154       14.061560340           1.8247655E+02
  155       15.060796337           2.4585038E+02
  156       16.250502743           3.4573829E+02
  157       17.716178026           5.1700110E+02
  158       19.618102581           8.5075004E+02
  159       22.316112016           1.6618236E+03
  160       26.958413248           4.8809727E+03
     irreducible set of Lebedev Angular points ;
  0.009523809523810  1.000000000000000  0.000000000000000  0.000000000000000
  0.032142857142857  0.577350269189626  0.577350269189626  0.577350269189626
  0.028571428571429  0.459700843380983  0.000000000000000  0.888073833977115
   total no. of   reducible points:  38; test:  1.00000000
  0.012698412698413  1.000000000000000  0.000000000000000  0.000000000000000
  0.022574955908289  0.707106781186547  0.707106781186547  0.000000000000000
  0.021093750000000  0.577350269189626  0.577350269189626  0.577350269189626
  0.020173335537919  0.301511344577764  0.301511344577764  0.904534033733291
   total no. of   reducible points:  50; test:  1.00000000
  0.000513067179734  1.000000000000000  0.000000000000000  0.000000000000000
  0.016604069565742  0.707106781186547  0.707106781186547  0.000000000000000
 -0.029586038961039  0.577350269189626  0.577350269189626  0.577350269189626
  0.026576207082159  0.480384461415261  0.480384461415261  0.733799385705343
  0.016522170993716  0.320772648980776  0.000000000000000  0.947156221362588
   total no. of   reducible points:  74; test:  1.00000000
  0.011544011544012  1.000000000000000  0.000000000000000  0.000000000000000
  0.011943909085856  0.577350269189626  0.577350269189626  0.577350269189626
  0.011110555710603  0.369602846454150  0.369602846454150  0.852518311701268
  0.011876501294537  0.694354006602666  0.694354006602666  0.189063552885395
  0.011812303746904  0.374243039090341  0.000000000000000  0.927330657151172
   total no. of   reducible points:  86; test:  1.00000000
  0.003828270494937  1.000000000000000  0.000000000000000  0.000000000000000
  0.009793737512488  0.577350269189626  0.577350269189626  0.577350269189626
  0.008211737283191  0.185115635344736  0.185115635344736  0.965124035086594
  0.009942814891178  0.690421048382292  0.690421048382292  0.215957291845848
  0.009595471336071  0.395689473055942  0.395689473055942  0.828769981252592
  0.009694996361663  0.478369028812150  0.000000000000000  0.878158910604066
   total no. of   reducible points: 110; test:  1.00000000
  0.000599631368862  1.000000000000000  0.000000000000000  0.000000000000000
  0.007372999718621  0.707106781186547  0.707106781186547  0.000000000000000
  0.007210515360144  0.577350269189626  0.577350269189626  0.577350269189626
  0.007116355493118  0.676441040011426  0.676441040011426  0.291298882209527
  0.006753829486314  0.417496122796545  0.417496122796545  0.807089818359583
  0.007574394159054  0.157467667203908  0.157467667203908  0.974888643677173
  0.006991087353303  0.140355381171318  0.449332832326956  0.882270011260323
   total no. of   reducible points: 146; test:  1.00000000
  0.005544842902037  1.000000000000000  0.000000000000000  0.000000000000000
  0.006071332770671  0.707106781186547  0.707106781186547  0.000000000000000
  0.006383674773515  0.577350269189626  0.577350269189626  0.577350269189626
  0.005183387587748  0.255125262111413  0.255125262111413  0.932642590312691
  0.006317929009814  0.674360146036277  0.674360146036277  0.300793595137701
  0.006201670006589  0.431891069671941  0.431891069671941  0.791795559393492
  0.005477143385137  0.261393136033599  0.000000000000000  0.965232421976448
  0.005968383987681  0.499045316179604  0.144663074432512  0.854415804684659
   total no. of   reducible points: 170; test:  1.00000000
  0.001782340447245  1.000000000000000  0.000000000000000  0.000000000000000
  0.005716905949977  0.707106781186547  0.707106781186547  0.000000000000000
  0.005573383178849  0.577350269189626  0.577350269189626  0.577350269189626
  0.005608704082588  0.671297344269523  0.671297344269523  0.314196994182586
  0.005158237711805  0.289246562757544  0.289246562757544  0.912509096867474
  0.005518771467274  0.444693317871744  0.444693317871744  0.777493219314767
  0.004106777028169  0.129933544765007  0.129933544765007  0.982972302707253
  0.005051846064615  0.345770219761128  0.000000000000000  0.938319218137592
  0.005530248916233  0.159041710538353  0.836036015482459  0.525118572443642
   total no. of   reducible points: 194; test:  1.00000000
 -0.055226399197273  1.000000000000000  0.000000000000000  0.000000000000000
  0.004450274607445  0.577350269189626  0.577350269189626  0.577350269189626
  0.004496841067921  0.449204468739761  0.449204468739761  0.772289253148364
  0.005049153450479  0.252041949021020  0.252041949021020  0.934317778845812
  0.003976408018052  0.698190665844724  0.698190665844724  0.158302205463478
  0.004401400650381  0.658740524346096  0.658740524346096  0.363485684956727
  0.017245443505444  0.040385440500977  0.040385440500977  0.998367683967727
  0.004231083095357  0.582384230971558  0.000000000000000  0.812913653173365
  0.005198069864064  0.354587739051869  0.000000000000000  0.935022745880593
  0.004695720972569  0.227218180899819  0.486466153588665  0.843636521068894
   total no. of   reducible points: 230; test:  1.00000000
 -0.001313769127327  1.000000000000000  0.000000000000000  0.000000000000000
 -0.002522728704859  0.707106781186547  0.707106781186547  0.000000000000000
  0.004186853881701  0.577350269189626  0.577350269189626  0.577350269189626
  0.005315167977811  0.703937339158548  0.703937339158548  0.094575076403713
  0.004047142377086  0.101252624857241  0.101252624857241  0.989694807462905
  0.004112482394407  0.464744872642054  0.464744872642054  0.753673939250816
  0.003595584899759  0.327742065497163  0.327742065497163  0.886098344997499
  0.004256131351428  0.662033866369997  0.662033866369997  0.351315128564633
  0.004229582700647  0.850650808352040  0.000000000000000  0.525731112119134
  0.004080914225781  0.323348454269290  0.115311201100970  0.939227929749916
  0.004071467593831  0.231479015871260  0.524493924092236  0.819343388819120
   total no. of   reducible points: 266; test:  1.00000000
  0.000854591172513  1.000000000000000  0.000000000000000  0.000000000000000
  0.003599119285026  0.577350269189626  0.577350269189626  0.577350269189626
  0.003449788424306  0.351564034557011  0.351564034557011  0.867643624544083
  0.003604822601420  0.656632941021961  0.656632941021961  0.371034178384821
  0.003576729661743  0.472905413258100  0.472905413258100  0.743452042987556
  0.002352101413689  0.096183085226148  0.096183085226148  0.990705621379408
  0.003108953122414  0.221964523629418  0.221964523629418  0.949454317226443
  0.003650045807677  0.701176641608955  0.701176641608955  0.129238672710514
  0.002982344963172  0.264415288706066  0.000000000000000  0.964408914879206
  0.003600820932216  0.571895589187896  0.000000000000000  0.820326419827759
  0.003571540554273  0.251003475177047  0.800072749407395  0.544867737258077
  0.003392312205006  0.123354853258333  0.412772408316853  0.902442529533000
   total no. of   reducible points: 302; test:  1.00000000
  0.003006796749454  1.000000000000000  0.000000000000000  0.000000000000000
  0.003050627745651  0.577350269189626  0.577350269189626  0.577350269189626
  0.001621104600289  0.706896546391232  0.706896546391232  0.024383301669356
  0.003005701484902  0.479468262571203  0.479468262571203  0.734996850587746
  0.002990992529654  0.192753315487802  0.192753315487802  0.962129055136014
  0.002982170644108  0.693035796132712  0.693035796132712  0.198501311223365
  0.002721564237311  0.360830211552009  0.360830211552009  0.860001812127547
  0.003033513795811  0.649848616149617  0.649848616149617  0.394199888605839
  0.003007949555219  0.193294501323034  0.000000000000000  0.981140782843257
  0.002881964603055  0.380049491989930  0.000000000000000  0.924966152698679
  0.002958357626536  0.289955882549957  0.793453785658232  0.535123047718276
  0.003036020026407  0.096841214551040  0.828080150668686  0.552182074349399
  0.002832187403926  0.183343464704166  0.907465826530513  0.378009189874487
   total no. of   reducible points: 350; test:  1.00000000
  0.000526589796822  1.000000000000000  0.000000000000000  0.000000000000000
  0.002548219972003  0.707106781186547  0.707106781186547  0.000000000000000
  0.002512317418927  0.577350269189626  0.577350269189626  0.577350269189626
  0.002530403801186  0.690934630750911  0.690934630750911  0.212646824707552
  0.002014279020919  0.177483605460916  0.177483605460916  0.967987158791473
  0.002501725168403  0.491434263778475  0.491434263778475  0.719016501040843
  0.002513267174598  0.645666470742426  0.645666470742426  0.407712664897770
  0.002302694782227  0.286128901030764  0.286128901030764  0.914472801120872
  0.001462495621595  0.075680843671780  0.075680843671780  0.994255912631278
  0.002445373437313  0.392725976336800  0.392725976336800  0.831584400419232
  0.002417442375639  0.881813287779429  0.000000000000000  0.471598691151316
  0.001910951282180  0.977642811118265  0.000000000000000  0.210272522857307
  0.002416930044325  0.205482369640304  0.868946032287241  0.450233038258263
  0.002512236854563  0.590515704892527  0.799927854385729  0.106801826075805
  0.002496644054553  0.555015236107681  0.771746262691590  0.310428403516654
  0.002236607760438  0.937180985855372  0.334436314534346  0.099217696364292
   total no. of   reducible points: 434; test:  1.00000000
  0.000309512129531  1.000000000000000  0.000000000000000  0.000000000000000
  0.001852379698597  0.577350269189626  0.577350269189626  0.577350269189626
  0.001871790639278  0.704095493822747  0.704095493822747  0.092190407076898
  0.001858812585438  0.680774406645524  0.680774406645524  0.270356088359165
  0.001852028828296  0.637254693925875  0.637254693925875  0.433373868777154
  0.001846715956151  0.504441970780036  0.504441970780036  0.700768575373573
  0.001818471778163  0.421576178401097  0.421576178401097  0.802836877335274
  0.001749564657281  0.331792073647212  0.331792073647212  0.883078727934133
  0.001617210647254  0.238473670142189  0.238473670142189  0.941414158220403
  0.001384737234852  0.145903644915776  0.145903644915776  0.978480583762694
  0.000976433116505  0.060950341155072  0.060950341155072  0.996278129754016
  0.001857161196774  0.611684344200988  0.000000000000000  0.791101929626902
  0.001705153996396  0.396475534819986  0.000000000000000  0.918045287711454
  0.001300321685886  0.172478200990772  0.000000000000000  0.985013335028002
  0.001842866472905  0.561026380862206  0.351828092773352  0.749310611904116
  0.001802658934377  0.474239284255198  0.263471665593795  0.840047488359050
  0.001849830560444  0.598412649788538  0.181664084036021  0.780320742479920
  0.001713904507107  0.379103540769556  0.172079522565688  0.909213475092374
  0.001555213603397  0.277867319058624  0.082130215819325  0.957102074310073
  0.001802239128009  0.503356427107512  0.089992058420749  0.859379855890721
   total no. of   reducible points: 590; test:  1.00000000
  0.000219294208818  1.000000000000000  0.000000000000000  0.000000000000000
  0.001436433617319  0.707106781186547  0.707106781186547  0.000000000000000
  0.001421940344336  0.577350269189626  0.577350269189626  0.577350269189626
  0.000679812351105  0.050872044105024  0.050872044105024  0.997408677652823
  0.000991318423529  0.122819879017883  0.122819879017883  0.984799753572301
  0.001180207833239  0.202689081440879  0.202689081440879  0.958036675983391
  0.001296599602081  0.284774515646429  0.284774515646429  0.915317950483155
  0.001365871427428  0.365671907897803  0.365671907897803  0.855901928697887
  0.001402988604775  0.442826488671347  0.442826488671347  0.779621319527635
  0.001418645563596  0.514061962724974  0.514061962724974  0.686644447264154
  0.001421376741852  0.630640121916680  0.630640121916680  0.452311920313658
  0.001423996475491  0.671688333202261  0.671688333202261  0.312521305001653
  0.001431554042179  0.697979268533688  0.697979268533688  0.160155803498829
  0.000925440149987  0.144686567419531  0.000000000000000  0.989477537495599
  0.001250239995054  0.339026347541122  0.000000000000000  0.940776878793759
  0.001394365843329  0.533580465126351  0.000000000000000  0.845749305193653
  0.001127089094672  0.069440243933494  0.235518789424233  0.969385863498432
  0.001345753760911  0.226900410952946  0.410218247404573  0.883310360522113
  0.001424957283317  0.080255746077753  0.621430241748161  0.779348105702661
  0.001261523341238  0.146799952789657  0.324528434571739  0.934414827052402
  0.001392547106053  0.157150776982473  0.522448218969663  0.838064133458312
  0.001418761677878  0.236570299315725  0.601754663408956  0.762840624604670
  0.001338366684480  0.077148158667657  0.434657551614116  0.897285336132833
  0.001393700862676  0.306293666621073  0.490882658903762  0.815609223203975
  0.001415914757467  0.382247737952479  0.564876814909950  0.731300793659766
   total no. of   reducible points: 770; test:  1.00000000
  0.000143829419053  1.000000000000000  0.000000000000000  0.000000000000000
  0.001125772288287  0.577350269189626  0.577350269189626  0.577350269189626
  0.000494802934195  0.042929635453413  0.042929635453413  0.998155345023847
  0.000735799010913  0.105142685408640  0.105142685408640  0.988883224354686
  0.000888913277130  0.175002486762309  0.175002486762309  0.968890220434707
  0.000988834783892  0.247765337965026  0.247765337965026  0.936602730407163
  0.001053299681709  0.320656712395596  0.320656712395596  0.891267942647606
  0.001092778807015  0.391652074984998  0.391652074984998  0.832596723702352
  0.001114389394063  0.459082587418762  0.459082587418762  0.760582905315251
  0.001123724788052  0.521456388841586  0.521456388841586  0.675400969108414
  0.001125239325244  0.625317024465420  0.625317024465420  0.466858905695743
  0.001126153271816  0.663792674452317  0.663792674452317  0.344613654237438
  0.001130286931124  0.691041039849830  0.691041039849830  0.211954151850184
  0.001134986534364  0.705290700745776  0.705290700745776  0.071624401449956
  0.000682336792711  0.123668676265799  0.000000000000000  0.992323565431490
  0.000945415816045  0.294077711446839  0.000000000000000  0.955781512496548
  0.001074429975386  0.469775384920765  0.000000000000000  0.882785980701182
  0.001129300086569  0.633456324113957  0.000000000000000  0.773778447257375
  0.000843688450090  0.059740486141813  0.202912875277752  0.977372722845310
  0.001075255720449  0.137576040847364  0.460262194248405  0.877058461865803
  0.001108577236864  0.339101652633629  0.503067399966204  0.794942299964208
  0.000956647532378  0.127167519143982  0.281760642244213  0.951020169374390
  0.001080663250717  0.269312074041351  0.433156129172016  0.860143461601762
  0.001126797131196  0.141978645260192  0.625616735858081  0.767102186220558
  0.001022568715358  0.067092846007383  0.379839521685916  0.922616110730809
  0.001108960267713  0.070577381832562  0.551750542142352  0.831017552413474
  0.001122790653436  0.278388847788215  0.602961915615919  0.747620610834086
  0.001032401847117  0.197957893891741  0.358960632958910  0.912118378409121
  0.001107249382284  0.208730706110327  0.534866643813548  0.818748536281022
  0.001121780048520  0.405512213787284  0.567499754607437  0.716591845467024
   total no. of   reducible points: 974; test:  1.00000000
  0.000110518923327  1.000000000000000  0.000000000000000  0.000000000000000
  0.000920523273809  0.707106781186547  0.707106781186547  0.000000000000000
  0.000913315978644  0.577350269189626  0.577350269189626  0.577350269189626
  0.000369042189802  0.037126364496571  0.037126364496571  0.998620681799919
  0.000560399092868  0.091400604122622  0.091400604122622  0.991610739722014
  0.000686529762928  0.153107785246991  0.153107785246991  0.976276606394685
  0.000772033855115  0.218092889166061  0.218092889166061  0.951247067480579
  0.000830154595889  0.283987453220018  0.283987453220018  0.915806886208668
  0.000868669255018  0.349117760096376  0.349117760096376  0.869616915181954
  0.000892707628585  0.412143146144431  0.412143146144431  0.812573722299916
  0.000906082023857  0.471899362714913  0.471899362714913  0.744729469632107
  0.000911977725494  0.527314545284234  0.527314545284234  0.666242253736104
  0.000912872013860  0.620947533244402  0.620947533244402  0.478380938076952
  0.000913071493569  0.656972271185729  0.656972271185729  0.369830866459426
  0.000915287378455  0.684178830907014  0.684178830907014  0.252583955700718
  0.000918743627432  0.701260433012363  0.701260433012363  0.128326186659723
  0.000517697731297  0.107238221547817  0.000000000000000  0.994233354821322
  0.000733114368210  0.258206895949697  0.000000000000000  0.966089643296119
  0.000846323283638  0.417275295530672  0.000000000000000  0.908780131681911
  0.000903112269425  0.570036691179250  0.000000000000000  0.821619237061433
  0.000648577845316  0.982798601826395  0.177177402261533  0.052106394770113
  0.000743503091098  0.962424923032623  0.247571646342629  0.111564095715648
  0.000799852789184  0.940200799412881  0.335461628906649  0.059058888532354
  0.000810173149747  0.932082204014320  0.317361524661198  0.174655167757863
  0.000848338957459  0.904367419939330  0.409026842708536  0.121723505109599
  0.000855629925731  0.891240756007475  0.385429115066922  0.239027847938172
  0.000880320867974  0.867643562846271  0.493222118485128  0.062662506241542
  0.000881104818243  0.858197998604162  0.478532067592243  0.185750519454734
  0.000885028234127  0.839675362404986  0.450742259315706  0.302946697352898
  0.000902134229904  0.816528856402219  0.563212302076210  0.126777480068428
  0.000901009167711  0.801546937078353  0.543430356969390  0.249411216236224
  0.000902269293843  0.777356306907035  0.512351848641987  0.364983226059765
  0.000915801617469  0.766162121390039  0.639427963474910  0.064245492242208
  0.000913157800319  0.755358414353351  0.626980550902439  0.190601822277923
  0.000910781357948  0.734430575755950  0.603116169309631  0.311227594714961
  0.000910576025897  0.704383718402177  0.569370249846844  0.423864478152234
   total no. of   reducible points:1202; test:  1.00000000
  0.000077771607433  1.000000000000000  0.000000000000000  0.000000000000000
  0.000755764641300  0.577350269189626  0.577350269189626  0.577350269189626
  0.000284163380609  0.032292906634139  0.032292906634139  0.998956623864238
  0.000437441912705  0.080367332714622  0.080367332714622  0.993520097262594
  0.000541717474087  0.135428996053165  0.135428996053165  0.981487633165117
  0.000614800089136  0.193896386111443  0.193896386111443  0.961669580940275
  0.000666439448580  0.253734371501127  0.253734371501127  0.933401166400522
  0.000702503935692  0.313525143475257  0.313525143475257  0.896328047546008
  0.000726851178925  0.372155833937534  0.372155833937534  0.850294108254619
  0.000742263753421  0.428680957519570  0.428680957519570  0.795276853253136
  0.000750954503584  0.482251012828299  0.482251012828299  0.731346649169981
  0.000754853505772  0.532067933356626  0.532067933356626  0.658640591360127
  0.000755408896977  0.617299819539427  0.617299819539427  0.487731345715221
  0.000755314717444  0.651067984912748  0.651067984912748  0.390155043595885
  0.000756476765329  0.677731525168736  0.677731525168736  0.285236672931301
  0.000758799180852  0.696310941064874  0.696310941064874  0.174075117999957
  0.000760826183203  0.705893500983175  0.705893500983175  0.058555363028785
  0.000402168044787  0.995554619409186  0.000000000000000  0.094185985013862
  0.000580487179395  0.973411590179421  0.000000000000000  0.229063039585986
  0.000679215195595  0.927569373238863  0.000000000000000  0.373650983980055
  0.000733674121129  0.856802242279510  0.000000000000000  0.515645147000147
  0.000758186630099  0.762349555371937  0.000000000000000  0.647165477620840
  0.000753825785980  0.570752290889222  0.438702803988950  0.694104943230444
  0.000748351724705  0.519646338840308  0.385890841476262  0.762270254565011
  0.000737176366111  0.464633753121535  0.330193737234385  0.821637128756598
  0.000718344889576  0.406390169755769  0.272542357356378  0.872105322408083
  0.000689581552982  0.345632946664309  0.213951023749525  0.913653558859526
  0.000648010580179  0.283139512105033  0.155592230978665  0.946373644151191
  0.000589755889659  0.219768202292533  0.098928789796861  0.970523071240677
  0.000509570884925  0.156469609865035  0.045986429106755  0.986611630545015
  0.000753690642891  0.602735667372129  0.337662514017343  0.722975616397235
  0.000747250596558  0.549603232025510  0.282230130972799  0.786309379645309
  0.000734301713228  0.492170775523457  0.224863234259254  0.840954489612314
  0.000713087158218  0.430942299859848  0.166622472345648  0.886862833757808
  0.000681702203211  0.366410818231367  0.108696490182217  0.924082347686118
  0.000638094114560  0.299018905775844  0.052519897841201  0.952800794667682
  0.000755038137792  0.626872401314500  0.229752365755002  0.744476220506856
  0.000747864664014  0.570732414483461  0.172308060709380  0.802853936449496
  0.000733591872060  0.509636090196037  0.114023846539051  0.852801042441985
  0.000711012052766  0.443872993831246  0.056115220958825  0.894330949550573
  0.000757136397869  0.641997847108239  0.116417442314087  0.757816431224233
  0.000748990832908  0.581721806180261  0.057975895314452  0.811319009870262
   total no. of   reducible points:1454; test:  1.00000000
  qrot: 

              1        2        3      
    1    1.0000   0.0000   0.0000
    2    0.0000   1.0000   0.0000
    3    0.0000   0.0000   1.0000
  me                     0   done genpts
  me                     6   done genpts
  me                     1   done genpts
  me                     2   done genpts
  me                     3   done genpts
  me                     4   done genpts
  me                     5   done genpts
  me                     7   done genpts
  me                     0   done uprt
  me                     1   done uprt
  me                     2   done uprt
  me                     3   done uprt
  me                     4   done uprt
  me                     5   done uprt
  me                     6   done uprt
  me                     7   done uprt
  me                     0  done mem
  me                     1  done mem
  me                     2  done mem
  me                     3  done mem
  me                     4  done mem
  me                     5  done mem
  me                     6  done mem
  me                     7  done mem
  dftinpanae: itol2e                     8  iaoacc                    14  tol_rho    1.0000000000000000E-010

            General Information
            -------------------
          SCF calculation type: DFT
          Wavefunction type:  spin polarized.
          No. of atoms     :     1
          No. of electrons :    31
           Alpha electrons :    16
            Beta electrons :    15
          Charge           :     0
          Spin multiplicity:     2
          Use of symmetry is: off; symmetry adaption is: off
          Maximum number of iterations:  50
          AO basis - number of functions:    69
                     number of shells:    19
          Convergence on energy requested:  1.00D-06
          Convergence on density requested:  1.00D-05
          Convergence on gradient requested:  5.00D-04

              XC Information
              --------------
                     Hartree-Fock (Exact) Exchange  1.000          
                     LC-wPBE(h)Exchange Functional  1.000          
            Perdew 1991 LDA Correlation Functional  1.000 local    
           PerdewBurkeErnz. Correlation Functional  1.000 non-local

           Range-Separation Parameters        
           ---------------------------
           Alpha           :  0.00
           Beta            :  1.00
           Gamma           :  0.24
           Short-Range HF  :     F

             Grid Information
             ----------------
          Grid used for XC integration:  xfine     
          Radial quadrature: Mura-Knowles        
          Angular quadrature: Lebedev. 
          Tag              B.-S. Rad. Rad. Pts. Rad. Cut. Ang. Pts.
          ---              ---------- --------- --------- ---------
          Ga                  1.30      160          14.0      1454
          Grid pruning is: on 
          Number of quadrature shells:   160
          Spatial weights used:  Erf1

          Convergence Information
          -----------------------
          Convergence aids based upon iterative change in 
          total energy or number of iterations. 
          Levelshifting, if invoked, occurs when the 
          HOMO/LUMO gap drops below (HL_TOL):  1.00D-02
          DIIS, if invoked, will attempt to extrapolate 
          using up to (NFOCK): 10 stored Fock matrices.

                    Damping( 0%)  Levelshifting(0.5)       DIIS
                  --------------- ------------------- ---------------
          dE  on:    start            ASAP                start   
          dE off:    2 iters         50 iters            50 iters 


      Screening Tolerance Information
      -------------------------------
          Density screening/tol_rho:  1.00D-10
          AO Gaussian exp screening on grid/accAOfunc:  14
          CD Gaussian exp screening on grid/accCDfunc:  20
          XC Gaussian exp screening on grid/accXCfunc:  20
          Schwarz screening/accCoul:  1.00D-08



                         Geometry "geometry" -> "geometry"
                         ---------------------------------

 Output coordinates in angstroms (scale by  1.889725989 to convert to a.u.)

  No.       Tag          Charge          X              Y              Z
 ---- ---------------- ---------- -------------- -------------- --------------
    1 Ga                  31.0000     0.00000000     0.00000000     0.00000000

      Atomic Mass 
      ----------- 

      Ga                68.925700


 Effective nuclear repulsion energy (a.u.)       0.0000000000

            Nuclear Dipole moment (a.u.) 
            ----------------------------
        X                 Y               Z
 ---------------- ---------------- ----------------
     0.0000000000     0.0000000000     0.0000000000

  
  CAM type calculations without CDFIT are
  only available with the direct option.
  Forcing Direct SCF
  


     <<<<<<    Before call to DFT_SCF.    >>>>>>
     <<<<<< date:  Apr 15  time: 00:09:00 >>>>>>


 Setting tolerance for linear dependence to 1.00D-05







 Setting tolerance for linear dependence to 1.00D-05
 Setting tolerance for linear dependence to 1.00D-05
 Setting tolerance for linear dependence to 1.00D-05
 Setting tolerance for linear dependence to 1.00D-05
 Setting tolerance for linear dependence to 1.00D-05
 Setting tolerance for linear dependence to 1.00D-05
 Setting tolerance for linear dependence to 1.00D-05
  lindep tolerance =    1.0000000000000001E-005
  lindep tolerance =    1.0000000000000001E-005
  lindep tolerance =    1.0000000000000001E-005
  lindep tolerance =    1.0000000000000001E-005
  lindep tolerance =    1.0000000000000001E-005
  lindep tolerance =    1.0000000000000001E-005
  lindep tolerance =    1.0000000000000001E-005
  lindep tolerance =    1.0000000000000001E-005


     <<<<<<    Before 3c-2e initialize.   >>>>>>
     <<<<<< date:  Apr 15  time: 00:09:00 >>>>>>


 Setting fock-build task_bf   :      -1
                    maxquartet:   10000
                    maxeri    :  129600
                    maxscr    :       0
                    intacc    : 0.0D+00
                    denscreen : T
                    dentol    : 1.0D-06


      Superposition of Atomic Density Guess
      -------------------------------------

 Sum of atomic energies:       -1923.26321256

      Non-variational initial energy
      ------------------------------

 Total energy =   -1923.152088
 1-e energy   =   -2684.956257
 2-e energy   =     761.804169
 HOMO         =      -0.008300
 LUMO         =      -0.008300


 Setting fock-build task_bf   :      -1
                    maxquartet:   10000
                    maxeri    :  129600
                    maxscr    :       0
                    intacc    : 0.0D+00
                    denscreen : T
                    dentol    : 1.0D-06


 Wrote molecular orbitals to ./ga.movecs

  WARNING: movecs_in_org=atomic not equal to movecs_in=./ga.movecs
   Time after variat. SCF:      7.0

 Setting fock-build task_bf   :      -1
                    maxquartet:   10000
                    maxeri    :  129600
                    maxscr    :       0
                    intacc    : 0.0D+00
                    denscreen : T
                    dentol    : 1.0D-06

   Time prior to 1st pass:      7.0


     <<<<<<      Before SCF iter loop.    >>>>>>
     <<<<<< date:  Apr 15  time: 00:09:06 >>>>>>

           DAMPING=T LEVELSHIFTING=F DIISING=T
          itol2e= 8 iAOacc=12 iXCacc=20


     <<<<<<            calling 1-e int    >>>>>>
     <<<<<< date:  Apr 15  time: 00:09:06 >>>>>>

    Kinetic Matrix Time:          0.0s

           Kinetic energy =   1922.941140498743

    Potential Matrix Time:          0.0s


     <<<<<<    Before call to GETVXC.     >>>>>>
     <<<<<< date:  Apr 15  time: 00:09:06 >>>>>>



     <<<<<<    Before call to fock_2e.    >>>>>>
     <<<<<< date:  Apr 15  time: 00:09:06 >>>>>>



     <<<<<<     After call to fock_2e.    >>>>>>
     <<<<<< date:  Apr 15  time: 00:09:08 >>>>>>

    Fock_2e Build Time:          1.7s
  *** grid_quadv0:                    calc_type:                    1
  *** grid_quadv0:                    grid_written: F
  *** grid_quadv0:                    grad: T
  *** grid_quadv0:                    kske: F
  *** grid_quadv0:                    kslap: F
  *** grid_quadv0:                    do_scf: T
  *** grid_quadv0:                    fde_option:                    0
  *** grid_quadv0:                    n_per_rec:                 3070
  *** grid_quadv0:                    calc_type:                    1
  *** grid_quadv0:                    grid_written: F
  *** grid_quadv0:                    grad: T
  *** grid_quadv0:                    kske: F
  *** grid_quadv0:                    kslap: F
  *** grid_quadv0:                    do_scf: T
  *** grid_quadv0:                    fde_option:                    0
  *** grid_quadv0:                    n_per_rec:                 3070
  *** grid_quadv0:                    calc_type:                    1
  *** grid_quadv0:                    grid_written: F
  *** grid_quadv0:                    grad: T
  *** grid_quadv0:                    kske: F
  *** grid_quadv0:                    kslap: F
  *** grid_quadv0:                    do_scf: T
  *** grid_quadv0:                    fde_option:                    0
  *** grid_quadv0:                    n_per_rec:                 3070
  *** grid_quadv0:                    calc_type:                    1
  *** grid_quadv0:                    grid_written: F
  *** grid_quadv0:                    grad: T
  *** grid_quadv0:                    kske: F
  *** grid_quadv0:                    kslap: F
  *** grid_quadv0:                    do_scf: T
  *** grid_quadv0:                    fde_option:                    0
  *** grid_quadv0:                    n_per_rec:                 3070
  *** grid_quadv0:                    calc_type:                    1
  *** grid_quadv0:                    grid_written: F
  *** grid_quadv0:                    grad: T
  *** grid_quadv0:                    kske: F
  *** grid_quadv0:                    kslap: F
  *** grid_quadv0:                    do_scf: T
  *** grid_quadv0:                    fde_option:                    0
  *** grid_quadv0:                    n_per_rec:                 3070
  *** grid_quadv0:                    calc_type:                    1
  *** grid_quadv0:                    grid_written: F
  *** grid_quadv0:                    grad: T
  *** grid_quadv0:                    kske: F
  *** grid_quadv0:                    kslap: F
  *** grid_quadv0:                    do_scf: T
  *** grid_quadv0:                    fde_option:                    0
  *** grid_quadv0:                    n_per_rec:                 3070
  *** grid_quadv0:                    calc_type:                    1
  *** grid_quadv0:                    grid_written: F
  *** grid_quadv0:                    grad: T
  *** grid_quadv0:                    kske: F
  *** grid_quadv0:                    kslap: F
  *** grid_quadv0:                    do_scf: T
  *** grid_quadv0:                    fde_option:                    0
  *** grid_quadv0:                    n_per_rec:                 3070
  *** grid_quadv0:                    calc_type:                    1
  *** grid_quadv0:                    grid_written: F
  *** grid_quadv0:                    grad: T
  *** grid_quadv0:                    kske: F
  *** grid_quadv0:                    kslap: F
  *** grid_quadv0:                    do_scf: T
  *** grid_quadv0:                    fde_option:                    0
  *** grid_quadv0:                    n_per_rec:                 3070
   1: nuse=   8 avail= 12500000Mb on .
   3: nuse=   8 avail= 12500000Mb on .
   7: nuse=   8 avail= 12500000Mb on .
   0: nuse=   8 avail= 12500000Mb on .
   2: nuse=   8 avail= 12500000Mb on .
   4: nuse=   8 avail= 12500000Mb on .
   5: nuse=   8 avail= 12500000Mb on .
   6: nuse=   8 avail= 12500000Mb on .
 l_cube input   11.00

  atom type   l_cube   no. cubes   segmts   rad   sub
 ----------- -------- ----------- -------- ----- -----
        1     10.80       124         5      27     8

 Grid_pts file          = ./ga.gridpts.0
 Record size in doubles =  12289        No. of grid_pts per rec  =   3070
 Max. records in memory =     12        Max. recs in file   = 126656358

 me   0 NQTOTC NQ/cube   22309     265
 me   1 NQTOTC NQ/cube   11636    2327
 me   2 NQTOTC NQ/cube   12255    1361
 me   3 NQTOTC NQ/cube   11574    1929
 me   4 NQTOTC NQ/cube   12981    6490
 me   5 NQTOTC NQ/cube   12289    4096
 me   6 NQTOTC NQ/cube   12623    1402
 me   7 NQTOTC NQ/cube   11801    1966

 XC quadr. integrated density :      31.000000 npts:   107129 nctrs:        1

    Fock_xc Build Time:          0.2s


     <<<<<<    Before call to GETVCOUL.   >>>>>>
     <<<<<< date:  Apr 15  time: 00:09:08 >>>>>>



     <<<<<<    End of parallel region.    >>>>>>
     <<<<<< date:  Apr 15  time: 00:09:08 >>>>>>

    Total Fock Matrix Build Time:          1.9s
 Etnew, Ecore, Ecoul, Exc(1), Exc(2), Totsic:   -1924.5262083275184       -2682.5540132264482        832.76326241445361       -74.735457515523720        0.0000000000000000        0.0000000000000000     
  delta =   -1924.5262083275184     
  delta =   -1924.5262083275184     
  delta =   -1924.5262083275184     


         Total DFT energy =    -1924.526208327518
      One electron energy =    -2682.554013226448
           Coulomb energy =      832.763262414454
    Exchange-Corr. energy =      -74.735457515524
  delta =   -1924.5262083275184     
  delta =   -1924.5262083275184     
  delta =   -1924.5262083275184     
  delta =   -1924.5262083275184     
  delta =   -1924.5262083275184     
 Nuclear repulsion energy =        0.000000000000

 Numeric. integr. density =       30.999999999320

     Total iterative time =      9.9s




     <<<<<<        calling diis driver    >>>>>>
     <<<<<< date:  Apr 15  time: 00:09:08 >>>>>>

 nhist                     1  pulay matrix 
   0.0000E+00
  -1.0000E+00   4.5925E-01


     <<<<<<         called diis driver    >>>>>>
     <<<<<< date:  Apr 15  time: 00:09:08 >>>>>>


 global array: fock transf[1:69,1:69],  handle: -940 

            1           2           3           4           5           6  
       ----------- ----------- ----------- ----------- ----------- -----------
   1      41.84496     0.00000     0.00000     0.00000     0.46020     0.00000
   2       0.00000     5.73131     0.00042     0.00038     0.00000     0.01660
   3       0.00000     0.00042     5.72898     0.00006     0.00000    -0.04298
   4       0.00000     0.00038     0.00006     5.72897     0.00000    -0.01011
   5       0.46020     0.00000     0.00000     0.00000     4.56117     0.00000
   6       0.00000     0.01660    -0.04298    -0.01011     0.00000     0.36570
   7      -0.00000     0.00522    -0.00877     0.04604    -0.00000     0.00010
   8       0.00000    -0.04335    -0.01734     0.00184     0.00000    -0.00040
   9       2.12182    -0.00000    -0.00000    -0.00000     2.09474    -0.00000
  10       0.00000    -0.63401    -0.14836     0.01008     0.00000     0.03110
  11      -0.00000     0.10618    -0.41351     0.48601    -0.00000    -0.10677
  12       0.00000     0.10364    -0.47486    -0.42679     0.00000    -0.19300
  13       0.00000    -0.00005     0.00018     0.00014     0.00000    -0.00033
  14      -2.40099     0.00000     0.00000     0.00000     0.23554     0.00000
  15       2.89257     0.00000     0.00000     0.00000    -0.11296     0.00000
  16      -0.00000     0.00001     0.00007    -0.00010    -0.00000    -0.00009
  17      -0.00000    -0.00005    -0.00017     0.00046    -0.00000     0.00007
  18       0.00000    -0.00010     0.00048     0.00013     0.00000    -0.00080
  19       0.00029    -0.00000    -0.00000     0.00000    -0.00041    -0.00000
  20      -0.00031    -0.00000    -0.00000    -0.00000     0.00045    -0.00000
  21      -0.00007     0.00000    -0.00000     0.00000     0.00010    -0.00000
  22      -0.00000    -0.07485     0.01321    -0.02473    -0.00000    -0.00209
  23      -0.00000     0.01085    -0.05007    -0.05998    -0.00000     0.00397
  24      -0.00000    -0.02651    -0.05962     0.04502    -0.00000     0.00231
  25      -0.00000    -0.00010     0.00031     0.00025    -0.00000     0.00025
  26      -0.00094     0.00000    -0.00000     0.00000     0.00136    -0.00000
  27      -0.00054    -0.00000     0.00000     0.00000     0.00078     0.00000
  28       0.00000     0.00003    -0.00041     0.00015     0.00000    -0.00022
  29       0.00000    -0.00015    -0.00045     0.00070     0.00000    -0.00018
  30      -0.00000    -0.00020     0.00069     0.00045    -0.00000     0.00055
  31       0.00001    -0.00000    -0.00000    -0.00000    -0.00003     0.00000
  32      -0.00008    -0.00000    -0.00000     0.00000     0.00028    -0.00000
  33      -0.00010     0.00000     0.00000     0.00000     0.00037     0.00000
  34      -0.00000     0.05211     0.01262    -0.01211    -0.00000    -0.01787
  35      -0.00000    -0.00447     0.04615     0.02831    -0.00000     0.09315
  36      -0.00000     0.01652    -0.02598     0.04492    -0.00000    -0.03715
  37      -0.00000     0.00000     0.00000    -0.00000     0.00000     0.00000
  38      -0.00004     0.00000     0.00000     0.00000     0.00004     0.00000
  39       0.00000     0.00000     0.00000     0.00000    -0.00000     0.00000
  40       0.00000    -0.00928    -0.00160    -0.00038     0.00000     0.01722
  41       0.00000     0.00141    -0.00626    -0.00798     0.00000    -0.07713
  42       0.00000    -0.00130     0.00784    -0.00625     0.00000     0.06196
  43      -0.00002    -0.00000     0.00000     0.00000     0.00009     0.00000
  44       0.00031    -0.00000     0.00000     0.00000    -0.00118     0.00000
  45      -0.33314     0.00000     0.00000     0.00000    -0.10145     0.00000
  46      -0.00001    -0.00000    -0.00000    -0.00000     0.00001    -0.00000
  47      -0.00012    -0.00000    -0.00000    -0.00000     0.00013    -0.00000
  48      -0.00000     0.00000    -0.00000     0.00000     0.00000    -0.00000
  49       0.00010    -0.00000     0.00000     0.00000    -0.00010     0.00000
  50      -0.00001     0.00000    -0.00000    -0.00000     0.00001    -0.00000
  51      -0.31030    -0.00000    -0.00000    -0.00000     0.12609    -0.00000
  52       0.00000     0.03071     0.00821     0.00780     0.00000    -0.00001
  53      -0.00000     0.00365    -0.02846     0.01561    -0.00000    -0.00010
  54      -0.00000     0.01071    -0.01377    -0.02762    -0.00000    -0.00009
  55      -0.18055     0.00000     0.00000     0.00000     0.16965     0.00000
  56      -0.00000    -0.03223    -0.00756     0.00174    -0.00000     0.01109
  57      -0.00000     0.00036    -0.00941    -0.03116    -0.00000    -0.03586
  58       0.00000    -0.00767     0.03024    -0.00927     0.00000     0.06577
  59      -0.00021    -0.00000     0.00000     0.00000     0.00023     0.00000
  60      -0.00023     0.00000    -0.00000     0.00000     0.00025    -0.00000
  61      -0.01306     0.00000     0.00000     0.00000     0.11564     0.00000
  62       0.00000     0.14507    -0.04558     0.06673     0.00000    -0.00889
  63      -0.00000    -0.06350    -0.14914     0.03739    -0.00000    -0.01201
  64      -0.00000     0.04960    -0.05826    -0.14786    -0.00000    -0.01162
  65       0.55645     0.00000     0.00000     0.00000    -0.23521     0.00000
  66       0.00000     0.04512    -0.01548    -0.02180     0.00000    -0.00482
  67      -0.00000     0.01145    -0.02731     0.04340    -0.00000    -0.00272
  68       0.00000    -0.02394    -0.04214    -0.02007     0.00000    -0.00461
  69      -0.12953     0.00000     0.00000     0.00000     0.02659     0.00000

            7           8           9          10          11          12  
       ----------- ----------- ----------- ----------- ----------- -----------
   1      -0.00000     0.00000     2.12182     0.00000    -0.00000     0.00000
   2       0.00522    -0.04335    -0.00000    -0.63401     0.10618     0.10364
   3      -0.00877    -0.01734    -0.00000    -0.14836    -0.41351    -0.47486
   4       0.04604     0.00184    -0.00000     0.01008     0.48601    -0.42679
   5      -0.00000     0.00000     2.09474     0.00000    -0.00000     0.00000
   6       0.00010    -0.00040    -0.00000     0.03110    -0.10677    -0.19300
   7       0.36578    -0.00056     0.00000     0.01130    -0.19388     0.10909
   8      -0.00056     0.36818    -0.00000    -0.22024    -0.02519    -0.02161
   9       0.00000    -0.00000     1.92206    -0.00000     0.00000    -0.00000
  10       0.01130    -0.22024    -0.00000     1.46896    -0.00062     0.00035
  11      -0.19388    -0.02519     0.00000    -0.00062     1.46241    -0.00009
  12       0.10909    -0.02161    -0.00000     0.00035    -0.00009     1.46211
  13       0.00016    -0.00002    -0.00000    -0.00002     0.00004     0.00073
  14      -0.00000     0.00000     0.54362     0.00000    -0.00000     0.00000
  15      -0.00000     0.00000    -0.22220     0.00000    -0.00000     0.00000
  16      -0.00021     0.00002     0.00000    -0.00019     0.00049    -0.00006
  17       0.00076     0.00004     0.00000     0.00017    -0.00138     0.00061
  18       0.00005    -0.00009    -0.00000    -0.00005     0.00069     0.00143
  19      -0.00000    -0.00000     0.00019    -0.00000    -0.00000    -0.00000
  20       0.00000    -0.00000    -0.00021    -0.00000     0.00000    -0.00000
  21      -0.00000     0.00000    -0.00005     0.00000    -0.00000     0.00000
  22      -0.00189     0.00454     0.00000     0.06850    -0.04049    -0.00524
  23      -0.00310     0.00035     0.00000    -0.00008    -0.01129     0.07877
  24       0.00367     0.00352     0.00000     0.03933     0.06735     0.01009
  25      -0.00013     0.00002     0.00000    -0.00004     0.00004     0.00072
  26      -0.00000     0.00000    -0.00064     0.00000    -0.00000     0.00000
  27      -0.00000     0.00000    -0.00037    -0.00000     0.00000     0.00000
  28      -0.00011    -0.00004    -0.00000    -0.00010    -0.00058    -0.00036
  29      -0.00057     0.00000    -0.00000    -0.00005    -0.00147     0.00030
  30      -0.00019     0.00005     0.00000    -0.00006     0.00026     0.00147
  31       0.00000    -0.00000    -0.00004    -0.00000     0.00000    -0.00000
  32      -0.00000    -0.00000     0.00041    -0.00000    -0.00000    -0.00000
  33      -0.00000     0.00000     0.00053     0.00000    -0.00000     0.00000
  34       0.01488     0.09898     0.00000    -0.01911    -0.00245     0.00265
  35      -0.03489     0.02195     0.00000    -0.00194    -0.00350    -0.02151
  36      -0.09456     0.00696     0.00000    -0.00322     0.02123    -0.00316
  37       0.00000     0.00000     0.00001     0.00000     0.00000     0.00000
  38      -0.00000     0.00000     0.00007     0.00000    -0.00000     0.00000
  39      -0.00000     0.00000    -0.00000     0.00000    -0.00000     0.00000
  40       0.00869    -0.09739    -0.00000     0.02990    -0.00076    -0.00052
  41       0.06383    -0.00793    -0.00000     0.00009    -0.00525     0.02905
  42       0.07694     0.01758    -0.00000    -0.00151    -0.02920    -0.00516
  43      -0.00000     0.00000     0.00013    -0.00000     0.00000     0.00000
  44      -0.00000     0.00000    -0.00169     0.00000    -0.00000     0.00000
  45      -0.00000     0.00000    -0.24739     0.00000    -0.00000     0.00000
  46       0.00000    -0.00000     0.00001    -0.00000     0.00000    -0.00000
  47       0.00000    -0.00000     0.00012    -0.00000     0.00000    -0.00000
  48      -0.00000    -0.00000     0.00000    -0.00000    -0.00000     0.00000
  49      -0.00000     0.00000    -0.00019     0.00000    -0.00000     0.00000
  50       0.00000    -0.00000     0.00001     0.00000    -0.00000    -0.00000
  51       0.00000    -0.00000     0.15924    -0.00000     0.00000    -0.00000
  52      -0.00004     0.00013    -0.00000    -0.07349     0.01303    -0.01447
  53      -0.00009    -0.00003     0.00000     0.00743     0.07077     0.02593
  54       0.00009     0.00003     0.00000    -0.01799    -0.02364     0.06967
  55      -0.00000     0.00000     0.13948     0.00000    -0.00000     0.00000
  56       0.00103    -0.07423     0.00000     0.10357     0.00305    -0.00271
  57       0.06656    -0.00417     0.00000     0.00321    -0.05662     0.09011
  58       0.03606     0.01048    -0.00000     0.00075    -0.09012    -0.05677
  59      -0.00000     0.00000     0.00022     0.00000     0.00000     0.00000
  60      -0.00000    -0.00000     0.00023     0.00000    -0.00000    -0.00000
  61      -0.00000     0.00000     0.13316     0.00000    -0.00000     0.00000
  62      -0.01019     0.01287    -0.00000    -0.23629     0.18902     0.02364
  63      -0.00651    -0.01299     0.00000     0.17618     0.20841     0.13719
  64       0.01455     0.00340     0.00000    -0.06868    -0.12103     0.27293
  65      -0.00000     0.00000    -0.19235     0.00000    -0.00000     0.00000
  66       0.00170     0.00551    -0.00000    -0.13962     0.00410     0.10915
  67      -0.00670     0.00008     0.00000    -0.01529     0.17275    -0.02252
  68       0.00209    -0.00548    -0.00000     0.11200     0.02544     0.13431
  69      -0.00000     0.00000     0.01202     0.00000    -0.00000     0.00000

           13          14          15          16          17          18  
       ----------- ----------- ----------- ----------- ----------- -----------
   1       0.00000    -2.40099     2.89257    -0.00000    -0.00000     0.00000
   2      -0.00005     0.00000     0.00000     0.00001    -0.00005    -0.00010
   3       0.00018     0.00000     0.00000     0.00007    -0.00017     0.00048
   4       0.00014     0.00000     0.00000    -0.00010     0.00046     0.00013
   5       0.00000     0.23554    -0.11296    -0.00000    -0.00000     0.00000
   6      -0.00033     0.00000     0.00000    -0.00009     0.00007    -0.00080
   7       0.00016    -0.00000    -0.00000    -0.00021     0.00076     0.00005
   8      -0.00002     0.00000     0.00000     0.00002     0.00004    -0.00009
   9      -0.00000     0.54362    -0.22220     0.00000     0.00000    -0.00000
  10      -0.00002     0.00000     0.00000    -0.00019     0.00017    -0.00005
  11       0.00004    -0.00000    -0.00000     0.00049    -0.00138     0.00069
  12       0.00073     0.00000     0.00000    -0.00006     0.00061     0.00143
  13       0.84851     0.00000     0.00000    -0.00002     0.00016     0.00039
  14       0.00000     1.10391    -0.94554    -0.00000    -0.00000     0.00000
  15       0.00000    -0.94554     1.09296    -0.00000    -0.00000     0.00000
  16      -0.00002    -0.00000    -0.00000     0.84907    -0.00052     0.00018
  17       0.00016    -0.00000    -0.00000    -0.00052     0.84906     0.00008
  18       0.00039     0.00000     0.00000     0.00018     0.00008     0.84919
  19       0.00000     0.00029    -0.00030     0.00000     0.00000    -0.00000
  20      -0.00000    -0.00031     0.00032     0.00000     0.00000    -0.00000
  21       0.00000    -0.00007     0.00008     0.00000    -0.00000     0.00000
  22       0.00002    -0.00000    -0.00000     0.00045    -0.00010     0.00008
  23      -0.00021    -0.00000    -0.00000     0.00013    -0.00014    -0.00042
  24      -0.00004    -0.00000    -0.00000    -0.00049    -0.00015    -0.00009
  25       0.31614    -0.00000    -0.00000    -0.00001     0.00010     0.00027
  26       0.00000    -0.00094     0.00098     0.00000     0.00000    -0.00000
  27       0.00000    -0.00054     0.00057    -0.00000    -0.00000     0.00000
  28      -0.00007     0.00000     0.00000     0.24333     0.15087    -0.13409
  29       0.00005     0.00000     0.00000    -0.18238     0.25464    -0.04669
  30       0.00027    -0.00000    -0.00000     0.08523     0.11319     0.28306
  31      -0.00000     0.00001    -0.00001    -0.00000     0.00000    -0.00000
  32       0.00000    -0.00006     0.00014     0.00000     0.00000    -0.00000
  33       0.00000    -0.00008     0.00018    -0.00000    -0.00000     0.00000
  34       0.00006    -0.00000    -0.00000    -0.00012     0.00015     0.00012
  35      -0.00055    -0.00000    -0.00000    -0.00002    -0.00030    -0.00115
  36      -0.00005    -0.00000    -0.00000     0.00039    -0.00106     0.00034
  37      -0.00000    -0.00006     0.00007    -0.00000    -0.00000     0.00000
  38       0.00000    -0.00066     0.00078    -0.00000    -0.00000     0.00000
  39       0.00000     0.00004    -0.00004    -0.00000    -0.00000     0.00000
  40      -0.00003     0.00000     0.00000     0.00013    -0.00043     0.00011
  41      -0.00026     0.00000     0.00000     0.00012    -0.00030    -0.00048
  42       0.00006    -0.00000    -0.00000     0.00040    -0.00028     0.00026
  43       0.00000    -0.00002     0.00004    -0.00000    -0.00000     0.00000
  44       0.00000     0.00026    -0.00056    -0.00000    -0.00000     0.00000
  45       0.00000    -0.18351     0.00306    -0.00000    -0.00000     0.00000
  46      -0.00000    -0.00002     0.00004     0.00000     0.00000    -0.00000
  47      -0.00000    -0.00024     0.00058    -0.00000     0.00000    -0.00000
  48       0.00000    -0.00000     0.00000     0.00000    -0.00000     0.00000
  49       0.00000     0.00168    -0.00200    -0.00000    -0.00000     0.00000
  50      -0.00000    -0.00009     0.00011     0.00000     0.00000    -0.00000
  51      -0.00000     0.64002    -0.71396    -0.00000    -0.00000    -0.00000
  52      -0.00000     0.00000     0.00000     0.00000    -0.00001    -0.00000
  53       0.00000    -0.00000    -0.00000     0.00001    -0.00002     0.00002
  54       0.00001    -0.00000    -0.00000    -0.00000     0.00002     0.00002
  55       0.00000     1.21735    -1.74260    -0.00000    -0.00000     0.00000
  56      -0.00004    -0.00000    -0.00000     0.00017    -0.00039     0.00004
  57       0.00028    -0.00000    -0.00000    -0.00007     0.00057     0.00040
  58      -0.00021     0.00000     0.00000    -0.00009     0.00042    -0.00066
  59       0.00000    -0.00042     0.00100    -0.00000    -0.00000     0.00000
  60      -0.00000    -0.00045     0.00109     0.00000     0.00000    -0.00000
  61       0.00000     0.23664    -0.29583    -0.00000    -0.00000     0.00000
  62       0.00001     0.00000     0.00000    -0.00002     0.00001     0.00001
  63       0.00001    -0.00000    -0.00000     0.00001    -0.00006     0.00004
  64       0.00002    -0.00000    -0.00000    -0.00000     0.00004     0.00003
  65       0.00000    -0.72253     0.92561    -0.00000    -0.00000     0.00000
  66      -0.00029     0.00000     0.00000    -0.00027     0.00024    -0.00068
  67       0.00004    -0.00000    -0.00000    -0.00031     0.00116    -0.00038
  68      -0.00037     0.00000     0.00000     0.00024    -0.00057    -0.00071
  69       0.00000     0.08279    -0.10620    -0.00000    -0.00000     0.00000

           19          20          21          22          23          24  
       ----------- ----------- ----------- ----------- ----------- -----------
   1       0.00029    -0.00031    -0.00007    -0.00000    -0.00000    -0.00000
   2      -0.00000    -0.00000     0.00000    -0.07485     0.01085    -0.02651
   3      -0.00000    -0.00000    -0.00000     0.01321    -0.05007    -0.05962
   4       0.00000    -0.00000     0.00000    -0.02473    -0.05998     0.04502
   5      -0.00041     0.00045     0.00010    -0.00000    -0.00000    -0.00000
   6      -0.00000    -0.00000    -0.00000    -0.00209     0.00397     0.00231
   7      -0.00000     0.00000    -0.00000    -0.00189    -0.00310     0.00367
   8      -0.00000    -0.00000     0.00000     0.00454     0.00035     0.00352
   9       0.00019    -0.00021    -0.00005     0.00000     0.00000     0.00000
  10      -0.00000    -0.00000     0.00000     0.06850    -0.00008     0.03933
  11      -0.00000     0.00000    -0.00000    -0.04049    -0.01129     0.06735
  12      -0.00000    -0.00000     0.00000    -0.00524     0.07877     0.01009
  13       0.00000    -0.00000     0.00000     0.00002    -0.00021    -0.00004
  14       0.00029    -0.00031    -0.00007    -0.00000    -0.00000    -0.00000
  15      -0.00030     0.00032     0.00008    -0.00000    -0.00000    -0.00000
  16       0.00000     0.00000     0.00000     0.00045     0.00013    -0.00049
  17       0.00000     0.00000    -0.00000    -0.00010    -0.00014    -0.00015
  18      -0.00000    -0.00000     0.00000     0.00008    -0.00042    -0.00009
  19       0.75571    -0.00018     0.00012     0.00000     0.00000     0.00000
[...]
  49      -0.00000    -0.00000     0.00002    -0.92465     1.59570    -0.00000
  50      -3.68087     0.42939    -0.81388     0.00001    -0.00099     9.88391
  51       0.80609     0.00202    -3.69224     0.00005    -0.00542    -2.11031
  52      -0.41958    -3.77050    -0.09285     0.00000     0.00049    -2.85105
  53      -3.71308     0.43358    -0.83966     0.00001    -0.00099     9.88193
  54      -0.00370    -0.01686    -0.00132    -0.00000    -0.00000     0.00018
  55      -3.67910     0.42874    -0.81347     0.00001    -0.00099     9.88403
  56       0.83079     0.00007    -3.72604     0.00005    -0.00542    -2.10882
  57      -0.42282    -3.80736    -0.09569     0.00000     0.00049    -2.85036
  58       0.82214    -0.00188    -3.68653     0.00005    -0.00542    -2.10928
  59      -0.41895    -3.76869    -0.09271     0.00000     0.00049    -2.85105
  60       1.39995    -0.16331     0.30541     0.00002    -0.00012     1.17183
  61      -0.30704    -0.00071     1.38540     0.00007    -0.00064    -0.24952
  62       0.15957     1.43404     0.03484     0.00000     0.00006    -0.33800
  63       1.41131    -0.16479     0.31415     0.00002    -0.00012     1.17291
  64       0.00131     0.00594     0.00045     0.00000     0.00000    -0.00010
  65       1.39932    -0.16308     0.30528     0.00002    -0.00012     1.17176
  66      -0.31575    -0.00003     1.39686     0.00007    -0.00064    -0.25033
  67       0.16071     1.44704     0.03580     0.00000     0.00006    -0.33838
  68      -0.31270     0.00066     1.38347     0.00007    -0.00064    -0.25008
  69       0.15935     1.43340     0.03479     0.00000     0.00006    -0.33800

           67          68          69  
       ----------- ----------- -----------
   1      -0.00004     0.00036     0.99391
   2      -0.00029     0.00245    14.25832
   3      -0.00123     0.01028    32.26412
   4       0.00109    -0.00915   -10.99354
   5       0.00063    -0.00525    24.18882
   6       0.00103    -0.00886    21.52829
   7       0.00008    -0.00074     1.56790
   8       0.62451     0.51720     0.00000
   9      -0.19590     2.34386     0.00001
  10       2.30999     0.05894    -0.00000
  11       8.77082     7.26365     0.00002
  12      -2.75120    32.91780     0.00011
  13      32.44207     0.82779    -0.00000
  14       7.99923     6.62453     0.00002
  15      -2.50917    30.02138     0.00010
  16      29.58807     0.75495    -0.00000
  17      -4.98249    -4.12653    -0.00001
  18       1.56289   -18.70083    -0.00007
  19     -18.42954    -0.47027     0.00000
  20      -0.41031    -0.34042     0.00000
  21       0.12870    -1.54275     0.00001
  22      -1.51767    -0.03880    -0.00000
  23       0.03178     0.02634    -0.00000
  24      -0.00997     0.11938    -0.00000
  25       0.11756     0.00300     0.00000
  26      -0.00000     0.00007   -16.16905
  27       0.00000     0.00000     0.00000
  28       0.00000     0.00000     0.00000
  29      -0.00000     0.00007   -16.16904
  30       0.00000     0.00000     0.00000
  31      -0.00000     0.00007   -16.16905
  32      -0.00002     0.00016   -11.15720
  33      -0.00000    -0.00000    -0.00001
  34      -0.00000    -0.00000    -0.00000
  35      -0.00002     0.00016   -11.15722
  36      -0.00000    -0.00000    -0.00000
  37      -0.00002     0.00016   -11.15720
  38      -0.00043     0.00367   -10.31841
  39       0.00000     0.00000     0.00000
  40       0.00000     0.00000     0.00000
  41      -0.00043     0.00367   -10.31841
  42       0.00000     0.00000     0.00000
  43      -0.00043     0.00367   -10.31841
  44      -0.00010     0.00086    -1.90749
  45      -0.00000    -0.00000     0.00000
  46      -0.00000    -0.00000     0.00000
  47      -0.00010     0.00086    -1.90749
  48      -0.00000    -0.00000     0.00000
  49      -0.00010     0.00086    -1.90749
  50       2.73143     2.26234     0.00001
  51      -0.85707    10.25237     0.00004
  52      10.10318     0.25782    -0.00000
  53       2.73091     2.26085     0.00001
  54      -0.00107    -0.00008    -0.00000
  55       2.73143     2.26236     0.00001
  56      -0.85659    10.25042     0.00004
  57      10.10095     0.25765    -0.00000
  58      -0.85691    10.25270     0.00004
  59      10.10330     0.25783    -0.00000
  60       0.32384     0.26850    -0.00000
  61      -0.10143     1.21692    -0.00000
  62       1.19783     0.03060     0.00000
  63       0.32412     0.26939    -0.00000
  64       0.00059     0.00005    -0.00000
  65       0.32383     0.26848    -0.00000
  66      -0.10168     1.21809    -0.00000
  67       1.19905     0.03070     0.00000
  68      -0.10151     1.21673    -0.00000
  69       1.19776     0.03060     0.00000
  int_init: cando_txs set to always be  F
                                NWChem TDDFT Module
                                -------------------


            General Information
            -------------------
           No. of orbitals :     138
            Alpha orbitals :      69
             Beta orbitals :      69
        Alpha frozen cores :       0
         Beta frozen cores :       0
     Alpha frozen virtuals :       0
      Beta frozen virtuals :       0
         Spin multiplicity :       2
    Number of AO functions :      69
        Use of symmetry is : off
      Symmetry adaption is : off
         Schwarz screening :  0.10D-07

              XC Information
              --------------
              Hartree-Fock (Exact) Exchange   1.00          
              LC-wPBE(h)Exchange Functional   1.00          
     Perdew 1991 LDA Correlation Functional   1.00 local    
    PerdewBurkeErnz. Correlation Functional   1.00 non-local
           Alpha           :  0.00
           Beta            :  1.00
           Gamma           :  0.24

             TDDFT Information
             -----------------
          Calculation type : TDDFT             
         Wavefunction type : Unrestricted
          No. of electrons :      31
           Alpha electrons :      16
            Beta electrons :      15
              No. of roots :       5
          Max subspacesize :    5000
            Max iterations :     100
               Target root :       1
           Target symmetry : none
      Symmetry restriction : off
                 Algorithm : Optimal
        Davidson threshold :  0.10D-03

            Memory Information
            ------------------
          Available GA space size is       52428790478 doubles
          Available MA space size is        4194422260 doubles
          Length of a trial vector is          848     810
          Algorithm : Incore multiple tensor contraction
          Estimated peak GA usage is          33976428 doubles
          Estimated peak MA usage is             18000 doubles

    5 smallest eigenvalue differences (eV) 
--------------------------------------------------------
  No. Spin  Occ  Vir  Irrep   E(Occ)    E(Vir)   E(Diff)
--------------------------------------------------------
    1    1   16   17 a        -0.204    -0.012     5.224
    2    1   16   18 a        -0.204    -0.012     5.224
    3    1   16   19 a        -0.204     0.019     6.071
    4    1   16   20 a        -0.204     0.050     6.911
    5    1   16   21 a        -0.204     0.052     6.969
--------------------------------------------------------

  Entering Davidson iterations
  Unrestricted

  Iter   NTrls   NConv    DeltaV     DeltaE      Time   
  ----  ------  ------  ---------  ---------  --------- 
    1      5       0     0.59E-01   0.10+100       10.4
    2     15       0     0.40E-01   0.12E-01       13.3
    3     25       0     0.76E-02   0.35E-02       13.5
    4     33       0     0.14E-02   0.25E-04       12.3
    5     41       4     0.28E-03   0.45E-06       12.5
    6     43       5     0.86E-04   0.33E-07        8.9
  ----  ------  ------  ---------  ---------  --------- 
  Convergence criterion met

  Ground state a       -1924.567574507015 a.u.
  <S2> =   0.7548

  ----------------------------------------------------------------------------
  Root   1         a              0.000141241 a.u.                0.0038 eV 
  <S2> =   0.7552
  ----------------------------------------------------------------------------
     Transition Moments    X  0.00000   Y -0.00000   Z -0.00000
     Transition Moments   XX -0.64962  XY -1.49918  XZ  3.89432
     Transition Moments   YY -0.24644  YZ 17.81314  ZZ  0.89606
     Dipole Oscillator Strength                    0.0000000000
     Electric Quadrupole                           0.0000000000
     Magnetic Dipole                               0.0000000000
     Total Oscillator Strength                     0.0000000000

     Occ.   15 alpha a   ---  Virt.   25 alpha a   -0.13939 X
     Occ.   15 alpha a   ---  Virt.   25 alpha a   -0.13908 Y
     Occ.   15 alpha a   ---  Virt.   34 alpha a   -0.13694 X
     Occ.   15 alpha a   ---  Virt.   34 alpha a   -0.13675 Y
     Occ.   16 alpha a   ---  Virt.   17 alpha a   -3.35885 X
     Occ.   16 alpha a   ---  Virt.   17 alpha a   -3.21910 Y
     Occ.   16 alpha a   ---  Virt.   18 alpha a    0.53488 X
     Occ.   16 alpha a   ---  Virt.   18 alpha a    0.51263 Y
     Occ.   16 alpha a   ---  Virt.   21 alpha a   -0.80206 X
     Occ.   16 alpha a   ---  Virt.   21 alpha a   -0.77014 Y
     Occ.   16 alpha a   ---  Virt.   22 alpha a    0.10717 X
     Occ.   16 alpha a   ---  Virt.   22 alpha a    0.10291 Y
     Occ.   16 alpha a   ---  Virt.   30 alpha a    0.25645 X
     Occ.   16 alpha a   ---  Virt.   30 alpha a    0.24638 Y
     Occ.   16 alpha a   ---  Virt.   31 alpha a   -0.10941 X
     Occ.   16 alpha a   ---  Virt.   31 alpha a   -0.10511 Y
     Occ.   15 beta  a   ---  Virt.   27 beta  a    0.08356 X
     Occ.   15 beta  a   ---  Virt.   27 beta  a    0.08349 Y
     Occ.   15 beta  a   ---  Virt.   36 beta  a    0.16665 X
     Occ.   15 beta  a   ---  Virt.   36 beta  a    0.16657 Y
     Occ.   15 beta  a   ---  Virt.   52 beta  a    0.08354 X
     Occ.   15 beta  a   ---  Virt.   52 beta  a    0.08352 Y
  ----------------------------------------------------------------------------
  Root   2         a              0.000141250 a.u.                0.0038 eV 
  <S2> =   0.7552
  ----------------------------------------------------------------------------
     Transition Moments    X -0.00000   Y  0.00000   Z -0.00000
     Transition Moments   XX  7.67674  XY 16.54012  XZ  0.74865
     Transition Moments   YY -7.74767  YZ  1.31297  ZZ  0.07093
     Dipole Oscillator Strength                    0.0000000000
     Electric Quadrupole                           0.0000000000
     Magnetic Dipole                               0.0000000000
     Total Oscillator Strength                     0.0000000000

     Occ.   15 alpha a   ---  Virt.   24 alpha a   -0.13938 X
     Occ.   15 alpha a   ---  Virt.   24 alpha a   -0.13907 Y
     Occ.   15 alpha a   ---  Virt.   33 alpha a   -0.13695 X
     Occ.   15 alpha a   ---  Virt.   33 alpha a   -0.13675 Y
     Occ.   16 alpha a   ---  Virt.   17 alpha a   -0.53487 X
     Occ.   16 alpha a   ---  Virt.   17 alpha a   -0.51261 Y
     Occ.   16 alpha a   ---  Virt.   18 alpha a   -3.35874 X
     Occ.   16 alpha a   ---  Virt.   18 alpha a   -3.21899 Y
     Occ.   16 alpha a   ---  Virt.   21 alpha a   -0.10717 X
     Occ.   16 alpha a   ---  Virt.   21 alpha a   -0.10290 Y
     Occ.   16 alpha a   ---  Virt.   22 alpha a   -0.80204 X
     Occ.   16 alpha a   ---  Virt.   22 alpha a   -0.77011 Y
     Occ.   16 alpha a   ---  Virt.   30 alpha a    0.10940 X
     Occ.   16 alpha a   ---  Virt.   30 alpha a    0.10511 Y
     Occ.   16 alpha a   ---  Virt.   31 alpha a    0.25643 X
     Occ.   16 alpha a   ---  Virt.   31 alpha a    0.24637 Y
     Occ.   15 beta  a   ---  Virt.   26 beta  a    0.08356 X
     Occ.   15 beta  a   ---  Virt.   26 beta  a    0.08349 Y
     Occ.   15 beta  a   ---  Virt.   35 beta  a    0.16664 X
     Occ.   15 beta  a   ---  Virt.   35 beta  a    0.16656 Y
     Occ.   15 beta  a   ---  Virt.   51 beta  a    0.08353 X
     Occ.   15 beta  a   ---  Virt.   51 beta  a    0.08351 Y
  ----------------------------------------------------------------------------
  Root   3         a              0.105670305 a.u.                2.8754 eV 
  <S2> =   0.7573
  ----------------------------------------------------------------------------
     Transition Moments    X -0.29296   Y -1.32763   Z -0.03339
     Transition Moments   XX  0.00001  XY -0.00000  XZ -0.00000
     Transition Moments   YY -0.00001  YZ -0.00000  ZZ  0.00001
     Dipole Oscillator Strength                    0.1302951919
     Electric Quadrupole                           0.0000000000
     Magnetic Dipole                               0.0000000000
     Total Oscillator Strength                     0.1302951919

     Occ.   16 alpha a   ---  Virt.   19 alpha a    0.91109 X
     Occ.   16 alpha a   ---  Virt.   23 alpha a   -0.40271 X
     Occ.   16 alpha a   ---  Virt.   32 alpha a    0.07371 X
  ----------------------------------------------------------------------------
  Root   4         a              0.142152521 a.u.                3.8682 eV 
  <S2> =   0.7555
  ----------------------------------------------------------------------------
     Transition Moments    X -0.00000   Y  0.00000   Z  0.00000
     Transition Moments   XX  0.09837  XY  0.22418  XZ -0.47649
     Transition Moments   YY  0.01151  YZ -2.18464  ZZ -0.10988
     Dipole Oscillator Strength                    0.0000000000
     Electric Quadrupole                           0.0000000774
     Magnetic Dipole                               0.0000000000
     Total Oscillator Strength                     0.0000000774

     Occ.   16 alpha a   ---  Virt.   17 alpha a    0.23379 X
     Occ.   16 alpha a   ---  Virt.   21 alpha a   -0.93666 X
     Occ.   16 alpha a   ---  Virt.   22 alpha a    0.14400 X
     Occ.   16 alpha a   ---  Virt.   30 alpha a    0.19172 X
     Occ.   16 alpha a   ---  Virt.   31 alpha a   -0.08630 X
  ----------------------------------------------------------------------------
  Root   5         a              0.142152558 a.u.                3.8682 eV 
  <S2> =   0.7555
  ----------------------------------------------------------------------------
     Transition Moments    X  0.00000   Y -0.00000   Z  0.00000
     Transition Moments   XX -0.94131  XY -2.02788  XZ -0.10138
     Transition Moments   YY  0.95219  YZ -0.20440  ZZ -0.01088
     Dipole Oscillator Strength                    0.0000000000
     Electric Quadrupole                           0.0000000774
     Magnetic Dipole                               0.0000000000
     Total Oscillator Strength                     0.0000000774

     Occ.   16 alpha a   ---  Virt.   18 alpha a    0.23379 X
     Occ.   16 alpha a   ---  Virt.   21 alpha a   -0.14400 X
     Occ.   16 alpha a   ---  Virt.   22 alpha a   -0.93666 X
     Occ.   16 alpha a   ---  Virt.   30 alpha a    0.08630 X
     Occ.   16 alpha a   ---  Virt.   31 alpha a    0.19172 X

              Target root =      1
          Target symmetry = none
      Ground state energy =  -1924.567574507015
        Excitation energy =      0.000141240519
     Excited state energy =  -1924.567433266496

  stored tddft:energy   -1924.5674332664960     

 Task  times  cpu:       85.0s     wall:       95.9s


                                NWChem Input Module
                                -------------------


 Summary of allocated global arrays
-----------------------------------
  No active global arrays


MA_summarize_allocated_blocks: starting scan ...
heap block 'gridpts', handle 77, address 0x139821a8:
	type of elements:		double precision
	number of elements:		1048456220
	address of client space:	0x13982200
	index for client space:		12935063
	total number of bytes:		8387649856
MA_summarize_allocated_blocks: scan completed: 1 heap block, 0 stack blocks
MA usage statistics:

	allocation statistics:
					      heap	     stack
					      ----	     -----
	current number of blocks	         1	         0
	maximum number of blocks	        18	        54
	current total bytes		8387649856	         0
	maximum total bytes		8388837696	 109417528
	maximum total K-bytes		   8388838	    109418
	maximum total M-bytes		      8389	       110


                                     CITATION
                                     --------
                Please cite the following reference when publishing
                           results obtained with NWChem:

          E. Apra, E. J. Bylaska, W. A. de Jong, N. Govind, K. Kowalski,
       T. P. Straatsma, M. Valiev, H. J. J. van Dam, Y. Alexeev, J. Anchell,
       V. Anisimov, F. W. Aquino, R. Atta-Fynn, J. Autschbach, N. P. Bauman,
     J. C. Becca, D. E. Bernholdt, K. Bhaskaran-Nair, S. Bogatko, P. Borowski,
         J. Boschen, J. Brabec, A. Bruner, E. Cauet, Y. Chen, G. N. Chuev,
      C. J. Cramer, J. Daily, M. J. O. Deegan, T. H. Dunning Jr., M. Dupuis,
   K. G. Dyall, G. I. Fann, S. A. Fischer, A. Fonari, H. Fruchtl, L. Gagliardi,
      J. Garza, N. Gawande, S. Ghosh, K. Glaesemann, A. W. Gotz, J. Hammond,
       V. Helms, E. D. Hermes, K. Hirao, S. Hirata, M. Jacquelin, L. Jensen,
   B. G. Johnson, H. Jonsson, R. A. Kendall, M. Klemm, R. Kobayashi, V. Konkov,
      S. Krishnamoorthy, M. Krishnan, Z. Lin, R. D. Lins, R. J. Littlefield,
      A. J. Logsdail, K. Lopata, W. Ma, A. V. Marenich, J. Martin del Campo,
   D. Mejia-Rodriguez, J. E. Moore, J. M. Mullin, T. Nakajima, D. R. Nascimento,
    J. A. Nichols, P. J. Nichols, J. Nieplocha, A. Otero-de-la-Roza, B. Palmer,
    A. Panyala, T. Pirojsirikul, B. Peng, R. Peverati, J. Pittner, L. Pollack,
   R. M. Richard, P. Sadayappan, G. C. Schatz, W. A. Shelton, D. W. Silverstein,
   D. M. A. Smith, T. A. Soares, D. Song, M. Swart, H. L. Taylor, G. S. Thomas,
            V. Tipparaju, D. G. Truhlar, K. Tsemekhman, T. Van Voorhis,
      A. Vazquez-Mayagoitia, P. Verma, O. Villa, A. Vishnu, K. D. Vogiatzis,
        D. Wang, J. H. Weare, M. J. Williamson, T. L. Windus, K. Wolinski,
        A. T. Wong, Q. Wu, C. Yang, Q. Yu, M. Zacharias, Z. Zhang, Y. Zhao,
                                and R. J. Harrison
                        "NWChem: Past, present, and future
                         J. Chem. Phys. 152, 184102 (2020)
                               doi:10.1063/5.0004997

                                      AUTHORS
                                      -------
  E. Apra, E. J. Bylaska, N. Govind, K. Kowalski, M. Valiev, D. Mejia-Rodriguez,
       A. Kunitsa, N. P. Bauman, A. Panyala, W. A. de Jong, T. P. Straatsma,
   H. J. J. van Dam, D. Wang, T. L. Windus, J. Hammond, J. Autschbach, A. Woods,
    K. Bhaskaran-Nair, J. Brabec, K. Lopata, S. A. Fischer, S. Krishnamoorthy,
     M. Jacquelin, W. Ma, M. Klemm, O. Villa, Y. Chen, V. Anisimov, F. Aquino,
     S. Hirata, M. T. Hackler, E. Hermes, L. Jensen, J. E. Moore, J. C. Becca,
      V. Konjkov, T. Risthaus, M. Malagoli, A. Marenich, A. Otero-de-la-Roza,
        J. Mullin, P. Nichols, R. Peverati, J. Pittner, Y. Zhao, P.-D. Fan,
        A. Fonari, M. J. Williamson, R. J. Harrison, J. R. Rehr, M. Dupuis,
     D. Silverstein, D. M. A. Smith, J. Nieplocha, V. Tipparaju, M. Krishnan,
     B. E. Van Kuiken, A. Vazquez-Mayagoitia, M. Swart, Q. Wu, T. Van Voorhis,
     A. A. Auer, M. Nooijen, L. D. Crosby, E. Brown, G. Cisneros, G. I. Fann,
   H. Fruchtl, J. Garza, K. Hirao, R. A. Kendall, J. A. Nichols, K. Tsemekhman,
    K. Wolinski, J. Anchell, D. E. Bernholdt, P. Borowski, T. Clark, D. Clerc,
   H. Dachsel, M. J. O. Deegan, K. Dyall, D. Elwood, E. Glendening, M. Gutowski,
   A. C. Hess, J. Jaffe, B. G. Johnson, J. Ju, R. Kobayashi, R. Kutteh, Z. Lin,
   R. Littlefield, X. Long, B. Meng, T. Nakajima, S. Niu, L. Pollack, M. Rosing,
   K. Glaesemann, G. Sandrone, M. Stave, H. Taylor, G. Thomas, J. H. van Lenthe,
                               A. T. Wong, Z. Zhang.

 Total times  cpu:       85.0s     wall:       96.6s
