 argument  1 = /home/aditisingh4812/nw_chem/nwchem-run/nwchem-run/tddft/open/open_atom/geom-MOL/ge.nw
                                         
                                         


             Northwest Computational Chemistry Package (NWChem) 7.2.3
             --------------------------------------------------------


                    Environmental Molecular Sciences Laboratory
                       Pacific Northwest National Laboratory
                                Richland, WA 99352

                              Copyright (c) 1994-2022
                       Pacific Northwest National Laboratory
                            Battelle Memorial Institute

             NWChem is an open-source computational chemistry package
                        distributed under the terms of the
                      Educational Community License (ECL) 2.0
             A copy of the license is included with this distribution
                              in the LICENSE.TXT file

                                  ACKNOWLEDGMENT
                                  --------------

            This software and its documentation were developed at the
            EMSL at Pacific Northwest National Laboratory, a multiprogram
            national laboratory, operated for the U.S. Department of Energy
            by Battelle under Contract Number DE-AC05-76RL01830. Support
            for this work was provided by the Department of Energy Office
            of Biological and Environmental Research, Office of Basic
            Energy Sciences, and the Office of Advanced Scientific Computing.


           Job information
           ---------------

    hostname        = p16
    program         = /home/aditisingh4812/nw_chem/nwchem-7.2.3-release.revision-d690e065-srconly.2024-08-27/nwchem-7.2.3/bin/LINUX64/nwchem
    date            = Tue Apr 15 00:10:37 2025

    compiled        = Mon_Apr_07_18:51:54_2025
    source          = /home/aditisingh4812/nw_chem/nwchem-7.2.3-release.revision-d690e065-srconly.2024-08-27/nwchem-7.2.3
    nwchem branch   = 7.2.3
    nwchem revision = d690e065
    ga revision     = 5.8.0
    use scalapack   = F
    input           = /home/aditisingh4812/nw_chem/nwchem-run/nwchem-run/tddft/open/open_atom/geom-MOL/ge.nw
    prefix          = ge.
    data base       = ./ge.db
    status          = startup
    nproc           =        8
    time left       =     -1s



           Memory information
           ------------------

    heap     = 2621439998 doubles =  20000.0 Mbytes
    stack    = 2621439995 doubles =  20000.0 Mbytes
    global   = 6553600000 doubles =  50000.0 Mbytes (distinct from heap & stack)
    total    = ********** doubles =  90000.0 Mbytes
    verify   = yes
    hardfail = no 


           Directory information
           ---------------------

  0 permanent = .
  0 scratch   = .




                                NWChem Input Module
                                -------------------



 Scaling coordinates for geometry "geometry" by  1.889725989
 (inverse scale =  0.529177249)



                             Geometry "geometry" -> ""
                             -------------------------

 Output coordinates in angstroms (scale by  1.889725989 to convert to a.u.)

  No.       Tag          Charge          X              Y              Z
 ---- ---------------- ---------- -------------- -------------- --------------
    1 Ge                  32.0000     0.00000000     0.00000000     0.00000000

      Atomic Mass 
      ----------- 

      Ge                73.921900


 Effective nuclear repulsion energy (a.u.)       0.0000000000

            Nuclear Dipole moment (a.u.) 
            ----------------------------
        X                 Y               Z
 ---------------- ---------------- ----------------
     0.0000000000     0.0000000000     0.0000000000


            XYZ format geometry
            -------------------
     1
 geometry
 Ge                    0.00000000     0.00000000     0.00000000



 Summary of "ao basis" -> "" (cartesian)
 ------------------------------------------------------------------------------
       Tag                 Description            Shells   Functions and Types
 ---------------- ------------------------------  ------  ---------------------
 *                        aug-cc-pVTZ                 on all atoms 


  pbe96 is a nonlocal functional; adding pw91lda local functional. 

                                 NWChem DFT Module
                                 -----------------


                      Basis "ao basis" -> "ao basis" (cartesian)
                      -----
  Ge (Germanium)
  --------------
            Exponent  Coefficients 
       -------------- ---------------------------------------------------------
  1 S  7.44796680E+06  0.000007
  1 S  1.11531820E+06  0.000057
  1 S  2.53842650E+05  0.000302
  1 S  7.19152850E+04  0.001273
  1 S  2.34701810E+04  0.004612
  1 S  8.47749180E+03  0.014821
  1 S  3.30839080E+03  0.042554
  1 S  1.37260540E+03  0.107306
  1 S  5.98220070E+02  0.224518
  1 S  2.71386020E+02  0.345313
  1 S  1.26977950E+02  0.304526
  1 S  6.02220650E+01  0.099067
  1 S  2.80185820E+01  0.004132
  1 S  1.35175220E+01  0.001035
  1 S  6.30940600E+00 -0.000486
  1 S  2.90453400E+00  0.000181
  1 S  1.28755600E+00 -0.000091
  1 S  1.67732000E-01 -0.000027

  2 S  7.44796680E+06 -0.000002
  2 S  1.11531820E+06 -0.000018
  2 S  2.53842650E+05 -0.000094
  2 S  7.19152850E+04 -0.000396
  2 S  2.34701810E+04 -0.001443
  2 S  8.47749180E+03 -0.004668
  2 S  3.30839080E+03 -0.013715
  2 S  1.37260540E+03 -0.036180
  2 S  5.98220070E+02 -0.084168
  2 S  2.71386020E+02 -0.158877
  2 S  1.26977950E+02 -0.203381
  2 S  6.02220650E+01 -0.025141
  2 S  2.80185820E+01  0.457515
  2 S  1.35175220E+01  0.557194
  2 S  6.30940600E+00  0.139706
  2 S  2.90453400E+00  0.002265
  2 S  1.28755600E+00  0.002093
  2 S  1.67732000E-01  0.000328

  3 S  7.44796680E+06  0.000001
  3 S  1.11531820E+06  0.000007
  3 S  2.53842650E+05  0.000036
  3 S  7.19152850E+04  0.000153
  3 S  2.34701810E+04  0.000556
  3 S  8.47749180E+03  0.001802
  3 S  3.30839080E+03  0.005309
  3 S  1.37260540E+03  0.014088
  3 S  5.98220070E+02  0.033201
  3 S  2.71386020E+02  0.064462
  3 S  1.26977950E+02  0.086954
  3 S  6.02220650E+01  0.011875
  3 S  2.80185820E+01 -0.272453
  3 S  1.35175220E+01 -0.500145
  3 S  6.30940600E+00  0.010855
  3 S  2.90453400E+00  0.721647
  3 S  1.28755600E+00  0.480521
  3 S  1.67732000E-01 -0.010230

  4 S  7.44796680E+06 -0.000000
  4 S  1.11531820E+06 -0.000002
  4 S  2.53842650E+05 -0.000009
  4 S  7.19152850E+04 -0.000039
  4 S  2.34701810E+04 -0.000143
  4 S  8.47749180E+03 -0.000462
  4 S  3.30839080E+03 -0.001361
  4 S  1.37260540E+03 -0.003618
  4 S  5.98220070E+02 -0.008536
  4 S  2.71386020E+02 -0.016651
  4 S  1.26977950E+02 -0.022591
  4 S  6.02220650E+01 -0.003215
  4 S  2.80185820E+01  0.074500
  4 S  1.35175220E+01  0.144033
  4 S  6.30940600E+00 -0.008082
  4 S  2.90453400E+00 -0.270416
  4 S  1.28755600E+00 -0.340161
  4 S  1.67732000E-01  0.619066

  5 S  3.36552000E-01  1.000000

  6 S  7.10690000E-02  1.000000

  7 S  2.73700000E-02  1.000000

  8 P  6.97959820E+03  0.000457
  8 P  1.65416480E+03  0.003956
  8 P  5.36028650E+02  0.021314
  8 P  2.03537130E+02  0.081872
  8 P  8.52375300E+01  0.222373
  8 P  3.78419620E+01  0.390566
  8 P  1.74065120E+01  0.356042
  8 P  7.88149200E+00  0.107031
  8 P  3.53321300E+00  0.003694
  8 P  1.52147300E+00  0.001922
  8 P  1.99093000E-01  0.000192

  9 P  6.97959820E+03 -0.000176
  9 P  1.65416480E+03 -0.001531
  9 P  5.36028650E+02 -0.008315
  9 P  2.03537130E+02 -0.032872
  9 P  8.52375300E+01 -0.093166
  9 P  3.78419620E+01 -0.175554
  9 P  1.74065120E+01 -0.146791
  9 P  7.88149200E+00  0.186293
  9 P  3.53321300E+00  0.526486
  9 P  1.52147300E+00  0.397086
  9 P  1.99093000E-01 -0.003348

 10 P  6.97959820E+03  0.000035
 10 P  1.65416480E+03  0.000301
 10 P  5.36028650E+02  0.001649
 10 P  2.03537130E+02  0.006498
 10 P  8.52375300E+01  0.018638
 10 P  3.78419620E+01  0.035061
 10 P  1.74065120E+01  0.029589
 10 P  7.88149200E+00 -0.047246
 10 P  3.53321300E+00 -0.124985
 10 P  1.52147300E+00 -0.121080
 10 P  1.99093000E-01  0.575473

 11 P  5.62704000E-01  1.000000

 12 P  6.70310000E-02  1.000000

 13 P  2.13680000E-02  1.000000

 14 D  2.82239110E+02  0.001828
 14 D  8.45499570E+01  0.015155
 14 D  3.20736560E+01  0.066046
 14 D  1.34974950E+01  0.183947
 14 D  5.95855000E+00  0.322787
 14 D  2.61078800E+00  0.372946
 14 D  1.10398700E+00  0.275173

 15 D  4.24049000E-01  1.000000

 16 D  1.52000000E-01  1.000000

 17 D  5.28000000E-02  1.000000

 18 F  3.45800000E-01  1.000000

 19 F  1.32300000E-01  1.000000



 Summary of "ao basis" -> "ao basis" (cartesian)
 ------------------------------------------------------------------------------
       Tag                 Description            Shells   Functions and Types
 ---------------- ------------------------------  ------  ---------------------
 Ge                       aug-cc-pVTZ               19       69   7s6p4d2f




 Summary of "ao basis" -> "ao basis" (cartesian)
 ------------------------------------------------------------------------------
       Tag                 Description            Shells   Functions and Types
 ---------------- ------------------------------  ------  ---------------------
 Ge                       aug-cc-pVTZ               19       69   7s6p4d2f




                         Geometry "geometry" -> "geometry"
                         ---------------------------------

 Output coordinates in angstroms (scale by  1.889725989 to convert to a.u.)

  No.       Tag          Charge          X              Y              Z
 ---- ---------------- ---------- -------------- -------------- --------------
    1 Ge                  32.0000     0.00000000     0.00000000     0.00000000

      Atomic Mass 
      ----------- 

      Ge                73.921900


 Effective nuclear repulsion energy (a.u.)       0.0000000000

            Nuclear Dipole moment (a.u.) 
            ----------------------------
        X                 Y               Z
 ---------------- ---------------- ----------------
     0.0000000000     0.0000000000     0.0000000000


                      Basis "ao basis" -> "ao basis" (cartesian)
                      -----
  Ge (Germanium)
  --------------
            Exponent  Coefficients 
       -------------- ---------------------------------------------------------
  1 S  7.44796680E+06  0.751918
  1 S  1.11531820E+06  1.404014
  1 S  2.53842650E+05  2.433308
  1 S  7.19152850E+04  3.985264
  1 S  2.34701810E+04  6.233262
  1 S  8.47749180E+03  9.332549
  1 S  3.30839080E+03 13.229987
  1 S  1.37260540E+03 17.246134
  1 S  5.98220070E+02 19.355617
  1 S  2.71386020E+02 16.455616
  1 S  1.26977950E+02  8.209775
  1 S  6.02220650E+01  1.526357
  1 S  2.80185820E+01  0.035861
  1 S  1.35175220E+01  0.005199
  1 S  6.30940600E+00 -0.001378
  1 S  2.90453400E+00  0.000286
  1 S  1.28755600E+00 -0.000079
  1 S  1.67732000E-01 -0.000005

  2 S  7.44796680E+06 -0.233684
  2 S  1.11531820E+06 -0.437799
  2 S  2.53842650E+05 -0.757572
  2 S  7.19152850E+04 -1.240572
  2 S  2.34701810E+04 -1.949286
  2 S  8.47749180E+03 -2.938714
  2 S  3.30839080E+03 -4.263736
  2 S  1.37260540E+03 -5.814289
  2 S  5.98220070E+02 -7.255454
  2 S  2.71386020E+02 -7.570476
  2 S  1.26977950E+02 -5.482497
  2 S  6.02220650E+01 -0.387322
  2 S  2.80185820E+01  3.970658
  2 S  1.35175220E+01  2.799314
  2 S  6.30940600E+00  0.396349
  2 S  2.90453400E+00  0.003590
  2 S  1.28755600E+00  0.001803
  2 S  1.67732000E-01  0.000061

  3 S  7.44796680E+06  0.093050
  3 S  1.11531820E+06  0.171729
  3 S  2.53842650E+05  0.296878
  3 S  7.19152850E+04  0.486615
  3 S  2.34701810E+04  0.764967
  3 S  8.47749180E+03  1.154393
  3 S  3.30839080E+03  1.679310
  3 S  1.37260540E+03  2.303806
  3 S  5.98220070E+02  2.912375
  3 S  2.71386020E+02  3.125658
  3 S  1.26977950E+02  2.385241
  3 S  6.02220650E+01  0.186157
  3 S  2.80185820E+01 -2.406153
  3 S  1.35175220E+01 -2.556910
  3 S  6.30940600E+00  0.031339
  3 S  2.90453400E+00  1.164337
  3 S  1.28755600E+00  0.421195
  3 S  1.67732000E-01 -0.001944

  4 S  7.44796680E+06 -0.033697
  4 S  1.11531820E+06 -0.073005
  4 S  2.53842650E+05 -0.124290
  4 S  7.19152850E+04 -0.203437
  4 S  2.34701810E+04 -0.319547
  4 S  8.47749180E+03 -0.482464
  4 S  3.30839080E+03 -0.701821
  4 S  1.37260540E+03 -0.964042
  4 S  5.98220070E+02 -1.220178
  4 S  2.71386020E+02 -1.315675
  4 S  1.26977950E+02 -1.009861
  4 S  6.02220650E+01 -0.082127
  4 S  2.80185820E+01  1.072180
  4 S  1.35175220E+01  1.199952
  4 S  6.30940600E+00 -0.038020
  4 S  2.90453400E+00 -0.710998
  4 S  1.28755600E+00 -0.485889
  4 S  1.67732000E-01  0.191746

  5 S  3.36552000E-01  0.314919

  6 S  7.10690000E-02  0.098100

  7 S  2.73700000E-02  0.047959

  8 P  6.97959820E+03 41.546851
  8 P  1.65416480E+03 59.488173
  8 P  5.36028650E+02 78.358300
  8 P  2.03537130E+02 89.715242
  8 P  8.52375300E+01 82.091831
  8 P  3.78419620E+01 52.250482
  8 P  1.74065120E+01 18.043436
  8 P  7.88149200E+00  2.014651
  8 P  3.53321300E+00  0.025506
  8 P  1.52147300E+00  0.004629
  8 P  1.99093000E-01  0.000036

  9 P  6.97959820E+03-16.491023
  9 P  1.65416480E+03-23.767958
  9 P  5.36028650E+02-31.568664
  9 P  2.03537130E+02-37.201728
  9 P  8.52375300E+01-35.520703
  9 P  3.78419620E+01-24.255674
  9 P  1.74065120E+01 -7.682893
  9 P  7.88149200E+00  3.621538
  9 P  3.53321300E+00  3.754346
  9 P  1.52147300E+00  0.987756
  9 P  1.99093000E-01 -0.000655

 10 P  6.97959820E+03  5.512996
 10 P  1.65416480E+03  7.895636
 10 P  5.36028650E+02 10.559590
 10 P  2.03537130E+02 12.405608
 10 P  8.52375300E+01 11.987132
 10 P  3.78419620E+01  8.171758
 10 P  1.74065120E+01  2.612422
 10 P  7.88149200E+00 -1.549331
 10 P  3.53321300E+00 -1.503452
 10 P  1.52147300E+00 -0.508070
 10 P  1.99093000E-01  0.190049

 11 P  5.62704000E-01  0.694688

 12 P  6.70310000E-02  0.048617

 13 P  2.13680000E-02  0.011645

 14 D  2.82239110E+02 60.459723
 14 D  8.45499570E+01 60.816122
 14 D  3.20736560E+01 48.599860
 14 D  1.34974950E+01 29.762160
 14 D  5.95855000E+00 12.486508
 14 D  2.61078800E+00  3.404277
 14 D  1.10398700E+00  0.556957

 15 D  4.24049000E-01  0.366765

 16 D  1.52000000E-01  0.060903

 17 D  5.28000000E-02  0.009572

 18 F  3.45800000E-01  0.134993

 19 F  1.32300000E-01  0.015540



    Basis function labels
    ---------------------
       No.  Atm El Type
       ---  --- -- ----
        1    1 Ge s          
        2    1 Ge s          
        3    1 Ge s          
        4    1 Ge s          
        5    1 Ge s          
        6    1 Ge s          
        7    1 Ge s          
        8    1 Ge px         
        9    1 Ge py         
       10    1 Ge pz         
       11    1 Ge px         
       12    1 Ge py         
       13    1 Ge pz         
       14    1 Ge px         
       15    1 Ge py         
       16    1 Ge pz         
       17    1 Ge px         
       18    1 Ge py         
       19    1 Ge pz         
       20    1 Ge px         
       21    1 Ge py         
       22    1 Ge pz         
       23    1 Ge px         
       24    1 Ge py         
       25    1 Ge pz         
       26    1 Ge dxx        
       27    1 Ge dxy        
       28    1 Ge dxz        
       29    1 Ge dyy        
       30    1 Ge dyz        
       31    1 Ge dzz        
       32    1 Ge dxx        
       33    1 Ge dxy        
       34    1 Ge dxz        
       35    1 Ge dyy        
       36    1 Ge dyz        
       37    1 Ge dzz        
       38    1 Ge dxx        
       39    1 Ge dxy        
       40    1 Ge dxz        
       41    1 Ge dyy        
       42    1 Ge dyz        
       43    1 Ge dzz        
       44    1 Ge dxx        
       45    1 Ge dxy        
       46    1 Ge dxz        
       47    1 Ge dyy        
       48    1 Ge dyz        
       49    1 Ge dzz        
       50    1 Ge fxxx       
       51    1 Ge fxxy       
       52    1 Ge fxxz       
       53    1 Ge fxyy       
       54    1 Ge fxyz       
       55    1 Ge fxzz       
       56    1 Ge fyyy       
       57    1 Ge fyyz       
       58    1 Ge fyzz       
       59    1 Ge fzzz       
       60    1 Ge fxxx       
       61    1 Ge fxxy       
       62    1 Ge fxxz       
       63    1 Ge fxyy       
       64    1 Ge fxyz       
       65    1 Ge fxzz       
       66    1 Ge fyyy       
       67    1 Ge fyyz       
       68    1 Ge fyzz       
       69    1 Ge fzzz       
  int_init: cando_txs set to always be  F

 Schwarz integral screening summary 
 ---------------------------------- 

        No. of atom pairs =       1
       No. of shell pairs =     190

 Atomic screening 

   value      no.     value      no.     value      no.     value      no.   
  -------- ------    -------- ------    -------- ------    -------- ------   
  0.00D+00      0    1.00D-13      0    1.00D-12      0    1.00D-11      0
  1.00D-10      0    1.00D-09      0    1.00D-08      0    1.00D-07      0
  1.00D-06      0    1.00D-05      0    1.00D-04      0    1.00D-03      0
  1.00D-02      0    1.00D-01      0    1.00D+00      0    1.00D+01      1


 Shell screening 

   value      no.     value      no.     value      no.     value      no.   
  -------- ------    -------- ------    -------- ------    -------- ------   
  0.00D+00      0    1.00D-13      0    1.00D-12      0    1.00D-11      0
  1.00D-10      0    1.00D-09      0    1.00D-08      0    1.00D-07      0
  1.00D-06      0    1.00D-05      3    1.00D-04      3    1.00D-03      9
  1.00D-02     19    1.00D-01     72    1.00D+00     82    1.00D+01      2


  Caching 1-el integrals 
  atom                     1  - neighbor  & S                     1   10.000000000000000       exp AB    2.1368000000000015E-002   2.1368000000000015E-002
 zmins =     0.021368000    0.021368000 lprod =   2 range =        23.85 acc   0.10D-07
 sh     0.000000000
  Center:                     1  Radial Pts. & Wghts. 
    1        0.000001439           8.9478505E-18
    2        0.000011516           2.2906574E-15
    3        0.000038865           5.8707578E-14
    4        0.000092126           5.8642403E-13
    5        0.000179935           3.4954618E-12
    6        0.000310931           1.5030501E-11
    7        0.000493754           5.1591033E-11
    8        0.000737048           1.5015679E-10
    9        0.001049457           3.8531004E-10
   10        0.001439631           8.9521358E-10
   11        0.001916225           1.9192743E-09
   12        0.002487899           3.8505981E-09
   13        0.003163323           7.3067240E-09
   14        0.003951173           1.3222515E-08
   15        0.004860137           2.2969486E-08
   16        0.005898916           3.8506253E-08
   17        0.007076225           6.2565221E-08
   18        0.008400792           9.8881068E-08
   19        0.009881367           1.5246704E-07
   20        0.011526718           2.2994554E-07
   21        0.013345636           3.3994005E-07
   22        0.015346939           4.9353588E-07
   23        0.017539469           7.0481789E-07
   24        0.019932102           9.9149385E-07
   25        0.022533746           1.3756128E-06
   26        0.025353345           1.8843887E-06
   27        0.028399883           2.5511391E-06
   28        0.031682388           3.4163527E-06
   29        0.035209934           4.5288949E-06
   30        0.038991643           5.9473681E-06
   31        0.043036694           7.7416382E-06
   32        0.047354323           9.9945452E-06
   33        0.051953828           1.2803813E-05
   34        0.056844572           1.6284175E-05
   35        0.062035992           2.0569739E-05
   36        0.067537598           2.5816608E-05
   37        0.073358982           3.2205783E-05
   38        0.079509822           3.9946364E-05
   39        0.085999886           4.9279087E-05
   40        0.092839038           6.0480221E-05
   41        0.100037246           7.3865848E-05
   42        0.107604586           8.9796569E-05
   43        0.115551248           1.0868267E-04
   44        0.123887542           1.3098978E-04
   45        0.132623908           1.5724507E-04
   46        0.141770920           1.8804407E-04
   47        0.151339294           2.2405803E-04
   48        0.161339895           2.6604212E-04
   49        0.171783747           3.1484422E-04
   50        0.182682040           3.7141465E-04
   51        0.194046138           4.3681671E-04
   52        0.205887590           5.1223823E-04
   53        0.218218137           5.9900414E-04
   54        0.231049723           6.9859018E-04
   55        0.244394507           8.1263790E-04
   56        0.258264869           9.4297091E-04
   57        0.272673428           1.0916127E-03
   58        0.287633046           1.2608061E-03
   59        0.303156847           1.4530341E-03
   60        0.319258226           1.6710436E-03
   61        0.335950864           1.9178696E-03
   62        0.353248741           2.1968633E-03
   63        0.371166151           2.5117221E-03
   64        0.389717718           2.8665214E-03
   65        0.408918412           3.2657512E-03
   66        0.428783567           3.7143544E-03
   67        0.449328898           4.2177694E-03
   68        0.470570517           4.7819765E-03
   69        0.492524958           5.4135487E-03
   70        0.515209196           6.1197069E-03
   71        0.538640668           6.9083810E-03
   72        0.562837294           7.7882759E-03
   73        0.587817508           8.7689440E-03
   74        0.613600278           9.8608656E-03
   75        0.640205134           1.1075535E-02
   76        0.667652199           1.2425559E-02
   77        0.695962219           1.3924757E-02
   78        0.725156592           1.5588282E-02
   79        0.755257407           1.7432744E-02
   80        0.786287476           1.9476351E-02
   81        0.818270376           2.1739062E-02
   82        0.851230486           2.4242756E-02
   83        0.885193033           2.7011421E-02
   84        0.920184136           3.0071356E-02
   85        0.956230859           3.3451401E-02
   86        0.993361257           3.7183188E-02
   87        1.031604436           4.1301419E-02
   88        1.070990614           4.5844175E-02
   89        1.111551178           5.0853254E-02
   90        1.153318758           5.6374554E-02
   91        1.196327297           6.2458493E-02
   92        1.240612129           6.9160473E-02
   93        1.286210062           7.6541410E-02
   94        1.333159469           8.4668305E-02
   95        1.381500383           9.3614902E-02
   96        1.431274600           1.0346241E-01
   97        1.482525792           1.1430030E-01
   98        1.535299628           1.2622724E-01
   99        1.589643899           1.3935211E-01
  100        1.645608666           1.5379512E-01
  101        1.703246405           1.6968914E-01
  102        1.762612175           1.8718113E-01
  103        1.823763795           2.0643378E-01
  104        1.886762040           2.2762740E-01
  105        1.951670853           2.5096197E-01
  106        2.018557570           2.7665960E-01
  107        2.087493177           3.0496719E-01
  108        2.158552583           3.3615954E-01
  109        2.231814919           3.7054290E-01
  110        2.307363872           4.0845903E-01
  111        2.385288043           4.5028979E-01
  112        2.465681350           4.9646250E-01
  113        2.548643466           5.4745610E-01
  114        2.634280309           6.0380821E-01
  115        2.722704576           6.6612340E-01
  116        2.814036346           7.3508265E-01
  117        2.908403743           8.1145451E-01
  118        3.005943680           8.9610809E-01
  119        3.106802685           9.9002819E-01
  120        3.211137832           1.0943332E+00
  121        3.319117785           1.2102962E+00
  122        3.430923973           1.3393697E+00
  123        3.546751919           1.4832154E+00
  124        3.666812745           1.6437395E+00
  125        3.791334887           1.8231349E+00
  126        3.920566043           2.0239318E+00
  127        4.054775412           2.2490594E+00
  128        4.194256266           2.5019204E+00
  129        4.339328911           2.7864818E+00
  130        4.490344131           3.1073862E+00
  131        4.647687178           3.4700900E+00
  132        4.811782459           3.8810340E+00
  133        4.983099032           4.3478570E+00
  134        5.162157106           4.8796643E+00
  135        5.349535771           5.4873690E+00
  136        5.545882238           6.1841268E+00
  137        5.751922972           6.9858979E+00
  138        5.968477192           7.9121769E+00
  139        6.196473380           8.9869531E+00
  140        6.436969623           1.0239985E+01
  141        6.691178927           1.1708517E+01
  142        6.960501034           1.3439611E+01
  143        7.246562839           1.5493374E+01
  144        7.551270379           1.7947486E+01
  145        7.876876602           2.0903661E+01
  146        8.226071029           2.4497054E+01
  147        8.602100403           2.8910255E+01
  148        9.008934130           3.4394618E+01
  149        9.451496068           4.1303690E+01
  150        9.935997418           5.0147309E+01
  151       10.470428721           6.1682455E+01
  152       11.065311971           7.7072660E+01
  153       11.734897567           9.8182691E+01
  154       12.499164747           1.2815912E+02
  155       13.387374522           1.7266858E+02
  156       14.444891327           2.4282305E+02
  157       15.747713801           3.6310640E+02
  158       17.438313405           5.9750895E+02
  159       19.836544014           1.1671519E+03
  160       23.963033998           3.4280631E+03
     irreducible set of Lebedev Angular points ;
  0.009523809523810  1.000000000000000  0.000000000000000  0.000000000000000
  0.032142857142857  0.577350269189626  0.577350269189626  0.577350269189626
  0.028571428571429  0.459700843380983  0.000000000000000  0.888073833977115
   total no. of   reducible points:  38; test:  1.00000000
  0.012698412698413  1.000000000000000  0.000000000000000  0.000000000000000
  0.022574955908289  0.707106781186547  0.707106781186547  0.000000000000000
  0.021093750000000  0.577350269189626  0.577350269189626  0.577350269189626
  0.020173335537919  0.301511344577764  0.301511344577764  0.904534033733291
   total no. of   reducible points:  50; test:  1.00000000
  0.000513067179734  1.000000000000000  0.000000000000000  0.000000000000000
  0.016604069565742  0.707106781186547  0.707106781186547  0.000000000000000
 -0.029586038961039  0.577350269189626  0.577350269189626  0.577350269189626
  0.026576207082159  0.480384461415261  0.480384461415261  0.733799385705343
  0.016522170993716  0.320772648980776  0.000000000000000  0.947156221362588
   total no. of   reducible points:  74; test:  1.00000000
  0.011544011544012  1.000000000000000  0.000000000000000  0.000000000000000
  0.011943909085856  0.577350269189626  0.577350269189626  0.577350269189626
  0.011110555710603  0.369602846454150  0.369602846454150  0.852518311701268
  0.011876501294537  0.694354006602666  0.694354006602666  0.189063552885395
  0.011812303746904  0.374243039090341  0.000000000000000  0.927330657151172
   total no. of   reducible points:  86; test:  1.00000000
  0.003828270494937  1.000000000000000  0.000000000000000  0.000000000000000
  0.009793737512488  0.577350269189626  0.577350269189626  0.577350269189626
  0.008211737283191  0.185115635344736  0.185115635344736  0.965124035086594
  0.009942814891178  0.690421048382292  0.690421048382292  0.215957291845848
  0.009595471336071  0.395689473055942  0.395689473055942  0.828769981252592
  0.009694996361663  0.478369028812150  0.000000000000000  0.878158910604066
   total no. of   reducible points: 110; test:  1.00000000
  0.000599631368862  1.000000000000000  0.000000000000000  0.000000000000000
  0.007372999718621  0.707106781186547  0.707106781186547  0.000000000000000
  0.007210515360144  0.577350269189626  0.577350269189626  0.577350269189626
  0.007116355493118  0.676441040011426  0.676441040011426  0.291298882209527
  0.006753829486314  0.417496122796545  0.417496122796545  0.807089818359583
  0.007574394159054  0.157467667203908  0.157467667203908  0.974888643677173
  0.006991087353303  0.140355381171318  0.449332832326956  0.882270011260323
   total no. of   reducible points: 146; test:  1.00000000
  0.005544842902037  1.000000000000000  0.000000000000000  0.000000000000000
  0.006071332770671  0.707106781186547  0.707106781186547  0.000000000000000
  0.006383674773515  0.577350269189626  0.577350269189626  0.577350269189626
  0.005183387587748  0.255125262111413  0.255125262111413  0.932642590312691
  0.006317929009814  0.674360146036277  0.674360146036277  0.300793595137701
  0.006201670006589  0.431891069671941  0.431891069671941  0.791795559393492
  0.005477143385137  0.261393136033599  0.000000000000000  0.965232421976448
  0.005968383987681  0.499045316179604  0.144663074432512  0.854415804684659
   total no. of   reducible points: 170; test:  1.00000000
  0.001782340447245  1.000000000000000  0.000000000000000  0.000000000000000
  0.005716905949977  0.707106781186547  0.707106781186547  0.000000000000000
  0.005573383178849  0.577350269189626  0.577350269189626  0.577350269189626
  0.005608704082588  0.671297344269523  0.671297344269523  0.314196994182586
  0.005158237711805  0.289246562757544  0.289246562757544  0.912509096867474
  0.005518771467274  0.444693317871744  0.444693317871744  0.777493219314767
  0.004106777028169  0.129933544765007  0.129933544765007  0.982972302707253
  0.005051846064615  0.345770219761128  0.000000000000000  0.938319218137592
  0.005530248916233  0.159041710538353  0.836036015482459  0.525118572443642
   total no. of   reducible points: 194; test:  1.00000000
 -0.055226399197273  1.000000000000000  0.000000000000000  0.000000000000000
  0.004450274607445  0.577350269189626  0.577350269189626  0.577350269189626
  0.004496841067921  0.449204468739761  0.449204468739761  0.772289253148364
  0.005049153450479  0.252041949021020  0.252041949021020  0.934317778845812
  0.003976408018052  0.698190665844724  0.698190665844724  0.158302205463478
  0.004401400650381  0.658740524346096  0.658740524346096  0.363485684956727
  0.017245443505444  0.040385440500977  0.040385440500977  0.998367683967727
  0.004231083095357  0.582384230971558  0.000000000000000  0.812913653173365
  0.005198069864064  0.354587739051869  0.000000000000000  0.935022745880593
  0.004695720972569  0.227218180899819  0.486466153588665  0.843636521068894
   total no. of   reducible points: 230; test:  1.00000000
 -0.001313769127327  1.000000000000000  0.000000000000000  0.000000000000000
 -0.002522728704859  0.707106781186547  0.707106781186547  0.000000000000000
  0.004186853881701  0.577350269189626  0.577350269189626  0.577350269189626
  0.005315167977811  0.703937339158548  0.703937339158548  0.094575076403713
  0.004047142377086  0.101252624857241  0.101252624857241  0.989694807462905
  0.004112482394407  0.464744872642054  0.464744872642054  0.753673939250816
  0.003595584899759  0.327742065497163  0.327742065497163  0.886098344997499
  0.004256131351428  0.662033866369997  0.662033866369997  0.351315128564633
  0.004229582700647  0.850650808352040  0.000000000000000  0.525731112119134
  0.004080914225781  0.323348454269290  0.115311201100970  0.939227929749916
  0.004071467593831  0.231479015871260  0.524493924092236  0.819343388819120
   total no. of   reducible points: 266; test:  1.00000000
  0.000854591172513  1.000000000000000  0.000000000000000  0.000000000000000
  0.003599119285026  0.577350269189626  0.577350269189626  0.577350269189626
  0.003449788424306  0.351564034557011  0.351564034557011  0.867643624544083
  0.003604822601420  0.656632941021961  0.656632941021961  0.371034178384821
  0.003576729661743  0.472905413258100  0.472905413258100  0.743452042987556
  0.002352101413689  0.096183085226148  0.096183085226148  0.990705621379408
  0.003108953122414  0.221964523629418  0.221964523629418  0.949454317226443
  0.003650045807677  0.701176641608955  0.701176641608955  0.129238672710514
  0.002982344963172  0.264415288706066  0.000000000000000  0.964408914879206
  0.003600820932216  0.571895589187896  0.000000000000000  0.820326419827759
  0.003571540554273  0.251003475177047  0.800072749407395  0.544867737258077
  0.003392312205006  0.123354853258333  0.412772408316853  0.902442529533000
   total no. of   reducible points: 302; test:  1.00000000
  0.003006796749454  1.000000000000000  0.000000000000000  0.000000000000000
  0.003050627745651  0.577350269189626  0.577350269189626  0.577350269189626
  0.001621104600289  0.706896546391232  0.706896546391232  0.024383301669356
  0.003005701484902  0.479468262571203  0.479468262571203  0.734996850587746
  0.002990992529654  0.192753315487802  0.192753315487802  0.962129055136014
  0.002982170644108  0.693035796132712  0.693035796132712  0.198501311223365
  0.002721564237311  0.360830211552009  0.360830211552009  0.860001812127547
  0.003033513795811  0.649848616149617  0.649848616149617  0.394199888605839
  0.003007949555219  0.193294501323034  0.000000000000000  0.981140782843257
  0.002881964603055  0.380049491989930  0.000000000000000  0.924966152698679
  0.002958357626536  0.289955882549957  0.793453785658232  0.535123047718276
  0.003036020026407  0.096841214551040  0.828080150668686  0.552182074349399
  0.002832187403926  0.183343464704166  0.907465826530513  0.378009189874487
   total no. of   reducible points: 350; test:  1.00000000
  0.000526589796822  1.000000000000000  0.000000000000000  0.000000000000000
  0.002548219972003  0.707106781186547  0.707106781186547  0.000000000000000
  0.002512317418927  0.577350269189626  0.577350269189626  0.577350269189626
  0.002530403801186  0.690934630750911  0.690934630750911  0.212646824707552
  0.002014279020919  0.177483605460916  0.177483605460916  0.967987158791473
  0.002501725168403  0.491434263778475  0.491434263778475  0.719016501040843
  0.002513267174598  0.645666470742426  0.645666470742426  0.407712664897770
  0.002302694782227  0.286128901030764  0.286128901030764  0.914472801120872
  0.001462495621595  0.075680843671780  0.075680843671780  0.994255912631278
  0.002445373437313  0.392725976336800  0.392725976336800  0.831584400419232
  0.002417442375639  0.881813287779429  0.000000000000000  0.471598691151316
  0.001910951282180  0.977642811118265  0.000000000000000  0.210272522857307
  0.002416930044325  0.205482369640304  0.868946032287241  0.450233038258263
  0.002512236854563  0.590515704892527  0.799927854385729  0.106801826075805
  0.002496644054553  0.555015236107681  0.771746262691590  0.310428403516654
  0.002236607760438  0.937180985855372  0.334436314534346  0.099217696364292
   total no. of   reducible points: 434; test:  1.00000000
  0.000309512129531  1.000000000000000  0.000000000000000  0.000000000000000
  0.001852379698597  0.577350269189626  0.577350269189626  0.577350269189626
  0.001871790639278  0.704095493822747  0.704095493822747  0.092190407076898
  0.001858812585438  0.680774406645524  0.680774406645524  0.270356088359165
  0.001852028828296  0.637254693925875  0.637254693925875  0.433373868777154
  0.001846715956151  0.504441970780036  0.504441970780036  0.700768575373573
  0.001818471778163  0.421576178401097  0.421576178401097  0.802836877335274
  0.001749564657281  0.331792073647212  0.331792073647212  0.883078727934133
  0.001617210647254  0.238473670142189  0.238473670142189  0.941414158220403
  0.001384737234852  0.145903644915776  0.145903644915776  0.978480583762694
  0.000976433116505  0.060950341155072  0.060950341155072  0.996278129754016
  0.001857161196774  0.611684344200988  0.000000000000000  0.791101929626902
  0.001705153996396  0.396475534819986  0.000000000000000  0.918045287711454
  0.001300321685886  0.172478200990772  0.000000000000000  0.985013335028002
  0.001842866472905  0.561026380862206  0.351828092773352  0.749310611904116
  0.001802658934377  0.474239284255198  0.263471665593795  0.840047488359050
  0.001849830560444  0.598412649788538  0.181664084036021  0.780320742479920
  0.001713904507107  0.379103540769556  0.172079522565688  0.909213475092374
  0.001555213603397  0.277867319058624  0.082130215819325  0.957102074310073
  0.001802239128009  0.503356427107512  0.089992058420749  0.859379855890721
   total no. of   reducible points: 590; test:  1.00000000
  0.000219294208818  1.000000000000000  0.000000000000000  0.000000000000000
  0.001436433617319  0.707106781186547  0.707106781186547  0.000000000000000
  0.001421940344336  0.577350269189626  0.577350269189626  0.577350269189626
  0.000679812351105  0.050872044105024  0.050872044105024  0.997408677652823
  0.000991318423529  0.122819879017883  0.122819879017883  0.984799753572301
  0.001180207833239  0.202689081440879  0.202689081440879  0.958036675983391
  0.001296599602081  0.284774515646429  0.284774515646429  0.915317950483155
  0.001365871427428  0.365671907897803  0.365671907897803  0.855901928697887
  0.001402988604775  0.442826488671347  0.442826488671347  0.779621319527635
  0.001418645563596  0.514061962724974  0.514061962724974  0.686644447264154
  0.001421376741852  0.630640121916680  0.630640121916680  0.452311920313658
  0.001423996475491  0.671688333202261  0.671688333202261  0.312521305001653
  0.001431554042179  0.697979268533688  0.697979268533688  0.160155803498829
  0.000925440149987  0.144686567419531  0.000000000000000  0.989477537495599
  0.001250239995054  0.339026347541122  0.000000000000000  0.940776878793759
  0.001394365843329  0.533580465126351  0.000000000000000  0.845749305193653
  0.001127089094672  0.069440243933494  0.235518789424233  0.969385863498432
  0.001345753760911  0.226900410952946  0.410218247404573  0.883310360522113
  0.001424957283317  0.080255746077753  0.621430241748161  0.779348105702661
  0.001261523341238  0.146799952789657  0.324528434571739  0.934414827052402
  0.001392547106053  0.157150776982473  0.522448218969663  0.838064133458312
  0.001418761677878  0.236570299315725  0.601754663408956  0.762840624604670
  0.001338366684480  0.077148158667657  0.434657551614116  0.897285336132833
  0.001393700862676  0.306293666621073  0.490882658903762  0.815609223203975
  0.001415914757467  0.382247737952479  0.564876814909950  0.731300793659766
   total no. of   reducible points: 770; test:  1.00000000
  0.000143829419053  1.000000000000000  0.000000000000000  0.000000000000000
  0.001125772288287  0.577350269189626  0.577350269189626  0.577350269189626
  0.000494802934195  0.042929635453413  0.042929635453413  0.998155345023847
  0.000735799010913  0.105142685408640  0.105142685408640  0.988883224354686
  0.000888913277130  0.175002486762309  0.175002486762309  0.968890220434707
  0.000988834783892  0.247765337965026  0.247765337965026  0.936602730407163
  0.001053299681709  0.320656712395596  0.320656712395596  0.891267942647606
  0.001092778807015  0.391652074984998  0.391652074984998  0.832596723702352
  0.001114389394063  0.459082587418762  0.459082587418762  0.760582905315251
  0.001123724788052  0.521456388841586  0.521456388841586  0.675400969108414
  0.001125239325244  0.625317024465420  0.625317024465420  0.466858905695743
  0.001126153271816  0.663792674452317  0.663792674452317  0.344613654237438
  0.001130286931124  0.691041039849830  0.691041039849830  0.211954151850184
  0.001134986534364  0.705290700745776  0.705290700745776  0.071624401449956
  0.000682336792711  0.123668676265799  0.000000000000000  0.992323565431490
  0.000945415816045  0.294077711446839  0.000000000000000  0.955781512496548
  0.001074429975386  0.469775384920765  0.000000000000000  0.882785980701182
  0.001129300086569  0.633456324113957  0.000000000000000  0.773778447257375
  0.000843688450090  0.059740486141813  0.202912875277752  0.977372722845310
  0.001075255720449  0.137576040847364  0.460262194248405  0.877058461865803
  0.001108577236864  0.339101652633629  0.503067399966204  0.794942299964208
  0.000956647532378  0.127167519143982  0.281760642244213  0.951020169374390
  0.001080663250717  0.269312074041351  0.433156129172016  0.860143461601762
  0.001126797131196  0.141978645260192  0.625616735858081  0.767102186220558
  0.001022568715358  0.067092846007383  0.379839521685916  0.922616110730809
  0.001108960267713  0.070577381832562  0.551750542142352  0.831017552413474
  0.001122790653436  0.278388847788215  0.602961915615919  0.747620610834086
  0.001032401847117  0.197957893891741  0.358960632958910  0.912118378409121
  0.001107249382284  0.208730706110327  0.534866643813548  0.818748536281022
  0.001121780048520  0.405512213787284  0.567499754607437  0.716591845467024
   total no. of   reducible points: 974; test:  1.00000000
  0.000110518923327  1.000000000000000  0.000000000000000  0.000000000000000
  0.000920523273809  0.707106781186547  0.707106781186547  0.000000000000000
  0.000913315978644  0.577350269189626  0.577350269189626  0.577350269189626
  0.000369042189802  0.037126364496571  0.037126364496571  0.998620681799919
  0.000560399092868  0.091400604122622  0.091400604122622  0.991610739722014
  0.000686529762928  0.153107785246991  0.153107785246991  0.976276606394685
  0.000772033855115  0.218092889166061  0.218092889166061  0.951247067480579
  0.000830154595889  0.283987453220018  0.283987453220018  0.915806886208668
  0.000868669255018  0.349117760096376  0.349117760096376  0.869616915181954
  0.000892707628585  0.412143146144431  0.412143146144431  0.812573722299916
  0.000906082023857  0.471899362714913  0.471899362714913  0.744729469632107
  0.000911977725494  0.527314545284234  0.527314545284234  0.666242253736104
  0.000912872013860  0.620947533244402  0.620947533244402  0.478380938076952
  0.000913071493569  0.656972271185729  0.656972271185729  0.369830866459426
  0.000915287378455  0.684178830907014  0.684178830907014  0.252583955700718
  0.000918743627432  0.701260433012363  0.701260433012363  0.128326186659723
  0.000517697731297  0.107238221547817  0.000000000000000  0.994233354821322
  0.000733114368210  0.258206895949697  0.000000000000000  0.966089643296119
  0.000846323283638  0.417275295530672  0.000000000000000  0.908780131681911
  0.000903112269425  0.570036691179250  0.000000000000000  0.821619237061433
  0.000648577845316  0.982798601826395  0.177177402261533  0.052106394770113
  0.000743503091098  0.962424923032623  0.247571646342629  0.111564095715648
  0.000799852789184  0.940200799412881  0.335461628906649  0.059058888532354
  0.000810173149747  0.932082204014320  0.317361524661198  0.174655167757863
  0.000848338957459  0.904367419939330  0.409026842708536  0.121723505109599
  0.000855629925731  0.891240756007475  0.385429115066922  0.239027847938172
  0.000880320867974  0.867643562846271  0.493222118485128  0.062662506241542
  0.000881104818243  0.858197998604162  0.478532067592243  0.185750519454734
  0.000885028234127  0.839675362404986  0.450742259315706  0.302946697352898
  0.000902134229904  0.816528856402219  0.563212302076210  0.126777480068428
  0.000901009167711  0.801546937078353  0.543430356969390  0.249411216236224
  0.000902269293843  0.777356306907035  0.512351848641987  0.364983226059765
  0.000915801617469  0.766162121390039  0.639427963474910  0.064245492242208
  0.000913157800319  0.755358414353351  0.626980550902439  0.190601822277923
  0.000910781357948  0.734430575755950  0.603116169309631  0.311227594714961
  0.000910576025897  0.704383718402177  0.569370249846844  0.423864478152234
   total no. of   reducible points:1202; test:  1.00000000
  0.000077771607433  1.000000000000000  0.000000000000000  0.000000000000000
  0.000755764641300  0.577350269189626  0.577350269189626  0.577350269189626
  0.000284163380609  0.032292906634139  0.032292906634139  0.998956623864238
  0.000437441912705  0.080367332714622  0.080367332714622  0.993520097262594
  0.000541717474087  0.135428996053165  0.135428996053165  0.981487633165117
  0.000614800089136  0.193896386111443  0.193896386111443  0.961669580940275
  0.000666439448580  0.253734371501127  0.253734371501127  0.933401166400522
  0.000702503935692  0.313525143475257  0.313525143475257  0.896328047546008
  0.000726851178925  0.372155833937534  0.372155833937534  0.850294108254619
  0.000742263753421  0.428680957519570  0.428680957519570  0.795276853253136
  0.000750954503584  0.482251012828299  0.482251012828299  0.731346649169981
  0.000754853505772  0.532067933356626  0.532067933356626  0.658640591360127
  0.000755408896977  0.617299819539427  0.617299819539427  0.487731345715221
  0.000755314717444  0.651067984912748  0.651067984912748  0.390155043595885
  0.000756476765329  0.677731525168736  0.677731525168736  0.285236672931301
  0.000758799180852  0.696310941064874  0.696310941064874  0.174075117999957
  0.000760826183203  0.705893500983175  0.705893500983175  0.058555363028785
  0.000402168044787  0.995554619409186  0.000000000000000  0.094185985013862
  0.000580487179395  0.973411590179421  0.000000000000000  0.229063039585986
  0.000679215195595  0.927569373238863  0.000000000000000  0.373650983980055
  0.000733674121129  0.856802242279510  0.000000000000000  0.515645147000147
  0.000758186630099  0.762349555371937  0.000000000000000  0.647165477620840
  0.000753825785980  0.570752290889222  0.438702803988950  0.694104943230444
  0.000748351724705  0.519646338840308  0.385890841476262  0.762270254565011
  0.000737176366111  0.464633753121535  0.330193737234385  0.821637128756598
  0.000718344889576  0.406390169755769  0.272542357356378  0.872105322408083
  0.000689581552982  0.345632946664309  0.213951023749525  0.913653558859526
  0.000648010580179  0.283139512105033  0.155592230978665  0.946373644151191
  0.000589755889659  0.219768202292533  0.098928789796861  0.970523071240677
  0.000509570884925  0.156469609865035  0.045986429106755  0.986611630545015
  0.000753690642891  0.602735667372129  0.337662514017343  0.722975616397235
  0.000747250596558  0.549603232025510  0.282230130972799  0.786309379645309
  0.000734301713228  0.492170775523457  0.224863234259254  0.840954489612314
  0.000713087158218  0.430942299859848  0.166622472345648  0.886862833757808
  0.000681702203211  0.366410818231367  0.108696490182217  0.924082347686118
  0.000638094114560  0.299018905775844  0.052519897841201  0.952800794667682
  0.000755038137792  0.626872401314500  0.229752365755002  0.744476220506856
  0.000747864664014  0.570732414483461  0.172308060709380  0.802853936449496
  0.000733591872060  0.509636090196037  0.114023846539051  0.852801042441985
  0.000711012052766  0.443872993831246  0.056115220958825  0.894330949550573
  0.000757136397869  0.641997847108239  0.116417442314087  0.757816431224233
  0.000748990832908  0.581721806180261  0.057975895314452  0.811319009870262
   total no. of   reducible points:1454; test:  1.00000000
  qrot: 

              1        2        3      
    1    1.0000   0.0000   0.0000
    2    0.0000   1.0000   0.0000
    3    0.0000   0.0000   1.0000
  me                     0   done genpts
  me                     2   done genpts
  me                     3   done genpts
  me                     4   done genpts
  me                     5   done genpts
  me                     7   done genpts
  me                     1   done genpts
  me                     6   done genpts
  me                     0   done uprt
  me                     1   done uprt
  me                     2   done uprt
  me                     3   done uprt
  me                     4   done uprt
  me                     5   done uprt
  me                     6   done uprt
  me                     7   done uprt
  me                     0  done mem
  me                     1  done mem
  me                     2  done mem
  me                     3  done mem
  me                     4  done mem
  me                     5  done mem
  me                     6  done mem
  me                     7  done mem
  dftinpanae: itol2e                     8  iaoacc                    14  tol_rho    1.0000000000000000E-010

            General Information
            -------------------
          SCF calculation type: DFT
          Wavefunction type:  spin polarized.
          No. of atoms     :     1
          No. of electrons :    32
           Alpha electrons :    17
            Beta electrons :    15
          Charge           :     0
          Spin multiplicity:     3
          Use of symmetry is: off; symmetry adaption is: off
          Maximum number of iterations:  50
          AO basis - number of functions:    69
                     number of shells:    19
          Convergence on energy requested:  1.00D-06
          Convergence on density requested:  1.00D-05
          Convergence on gradient requested:  5.00D-04

              XC Information
              --------------
                     Hartree-Fock (Exact) Exchange  1.000          
                     LC-wPBE(h)Exchange Functional  1.000          
            Perdew 1991 LDA Correlation Functional  1.000 local    
           PerdewBurkeErnz. Correlation Functional  1.000 non-local

           Range-Separation Parameters        
           ---------------------------
           Alpha           :  0.00
           Beta            :  1.00
           Gamma           :  0.25
           Short-Range HF  :     F

             Grid Information
             ----------------
          Grid used for XC integration:  xfine     
          Radial quadrature: Mura-Knowles        
          Angular quadrature: Lebedev. 
          Tag              B.-S. Rad. Rad. Pts. Rad. Cut. Ang. Pts.
          ---              ---------- --------- --------- ---------
          Ge                  1.25      160          13.0      1454
          Grid pruning is: on 
          Number of quadrature shells:   160
          Spatial weights used:  Erf1

          Convergence Information
          -----------------------
          Convergence aids based upon iterative change in 
          total energy or number of iterations. 
          Levelshifting, if invoked, occurs when the 
          HOMO/LUMO gap drops below (HL_TOL):  1.00D-02
          DIIS, if invoked, will attempt to extrapolate 
          using up to (NFOCK): 10 stored Fock matrices.

                    Damping( 0%)  Levelshifting(0.5)       DIIS
                  --------------- ------------------- ---------------
          dE  on:    start            ASAP                start   
          dE off:    2 iters         50 iters            50 iters 


      Screening Tolerance Information
      -------------------------------
          Density screening/tol_rho:  1.00D-10
          AO Gaussian exp screening on grid/accAOfunc:  14
          CD Gaussian exp screening on grid/accCDfunc:  20
          XC Gaussian exp screening on grid/accXCfunc:  20
          Schwarz screening/accCoul:  1.00D-08



                         Geometry "geometry" -> "geometry"
                         ---------------------------------

 Output coordinates in angstroms (scale by  1.889725989 to convert to a.u.)

  No.       Tag          Charge          X              Y              Z
 ---- ---------------- ---------- -------------- -------------- --------------
    1 Ge                  32.0000     0.00000000     0.00000000     0.00000000

      Atomic Mass 
      ----------- 

      Ge                73.921900


 Effective nuclear repulsion energy (a.u.)       0.0000000000

            Nuclear Dipole moment (a.u.) 
            ----------------------------
        X                 Y               Z
 ---------------- ---------------- ----------------
     0.0000000000     0.0000000000     0.0000000000

  
  CAM type calculations without CDFIT are
  only available with the direct option.
  Forcing Direct SCF
  


     <<<<<<    Before call to DFT_SCF.    >>>>>>
     <<<<<< date:  Apr 15  time: 00:10:37 >>>>>>


 Setting tolerance for linear dependence to 1.00D-05






 Setting tolerance for linear dependence to 1.00D-05

 Setting tolerance for linear dependence to 1.00D-05
 Setting tolerance for linear dependence to 1.00D-05
 Setting tolerance for linear dependence to 1.00D-05
 Setting tolerance for linear dependence to 1.00D-05
 Setting tolerance for linear dependence to 1.00D-05
 Setting tolerance for linear dependence to 1.00D-05
  lindep tolerance =    1.0000000000000001E-005
  lindep tolerance =    1.0000000000000001E-005
  lindep tolerance =    1.0000000000000001E-005
  lindep tolerance =    1.0000000000000001E-005
  lindep tolerance =    1.0000000000000001E-005
  lindep tolerance =    1.0000000000000001E-005
  lindep tolerance =    1.0000000000000001E-005
  lindep tolerance =    1.0000000000000001E-005


     <<<<<<    Before 3c-2e initialize.   >>>>>>
     <<<<<< date:  Apr 15  time: 00:10:37 >>>>>>


 Setting fock-build task_bf   :      -1
                    maxquartet:   10000
                    maxeri    :  129600
                    maxscr    :       0
                    intacc    : 0.0D+00
                    denscreen : T
                    dentol    : 1.0D-06


      Superposition of Atomic Density Guess
      -------------------------------------

 Sum of atomic energies:       -2075.34639416

      Non-variational initial energy
      ------------------------------

 Total energy =   -2075.136959
 1-e energy   =   -2895.037946
 2-e energy   =     819.900987
 HOMO         =      -0.073955
 LUMO         =      -0.073955


 Setting fock-build task_bf   :      -1
                    maxquartet:   10000
                    maxeri    :  129600
                    maxscr    :       0
                    intacc    : 0.0D+00
                    denscreen : T
                    dentol    : 1.0D-06


 Wrote molecular orbitals to ./ge.movecs

  WARNING: movecs_in_org=atomic not equal to movecs_in=./ge.movecs
   Time after variat. SCF:      7.3

 Setting fock-build task_bf   :      -1
                    maxquartet:   10000
                    maxeri    :  129600
                    maxscr    :       0
                    intacc    : 0.0D+00
                    denscreen : T
                    dentol    : 1.0D-06

   Time prior to 1st pass:      7.3


     <<<<<<      Before SCF iter loop.    >>>>>>
     <<<<<< date:  Apr 15  time: 00:10:44 >>>>>>

           DAMPING=T LEVELSHIFTING=F DIISING=T
          itol2e= 8 iAOacc=12 iXCacc=20


     <<<<<<            calling 1-e int    >>>>>>
     <<<<<< date:  Apr 15  time: 00:10:44 >>>>>>

    Kinetic Matrix Time:          0.0s

           Kinetic energy =   2074.833529303666

    Potential Matrix Time:          0.0s


     <<<<<<    Before call to GETVXC.     >>>>>>
     <<<<<< date:  Apr 15  time: 00:10:44 >>>>>>



     <<<<<<    Before call to fock_2e.    >>>>>>
     <<<<<< date:  Apr 15  time: 00:10:44 >>>>>>



     <<<<<<     After call to fock_2e.    >>>>>>
     <<<<<< date:  Apr 15  time: 00:10:46 >>>>>>

    Fock_2e Build Time:          2.0s
  *** grid_quadv0:                    calc_type:                    1
  *** grid_quadv0:                    grid_written: F
  *** grid_quadv0:                    grad: T
  *** grid_quadv0:                    kske: F
  *** grid_quadv0:                    kslap: F
  *** grid_quadv0:                    do_scf: T
  *** grid_quadv0:                    calc_type:                    1
  *** grid_quadv0:                    grid_written: F
  *** grid_quadv0:                    grad: T
  *** grid_quadv0:                    calc_type:                    1
  *** grid_quadv0:                    grid_written: F
  *** grid_quadv0:                    grad: T
  *** grid_quadv0:                    kske: F
  *** grid_quadv0:                    kslap: F
  *** grid_quadv0:                    do_scf: T
  *** grid_quadv0:                    fde_option:                    0
  *** grid_quadv0:                    calc_type:                    1
  *** grid_quadv0:                    grid_written: F
  *** grid_quadv0:                    grad: T
  *** grid_quadv0:                    kske: F
  *** grid_quadv0:                    kslap: F
  *** grid_quadv0:                    do_scf: T
  *** grid_quadv0:                    fde_option:                    0
  *** grid_quadv0:                    n_per_rec:                 3070
  *** grid_quadv0:                    fde_option:                    0
  *** grid_quadv0:                    n_per_rec:                 3070
  *** grid_quadv0:                    kske: F
  *** grid_quadv0:                    kslap: F
  *** grid_quadv0:                    do_scf: T
  *** grid_quadv0:                    fde_option:                    0
  *** grid_quadv0:                    n_per_rec:                 3070
  *** grid_quadv0:                    n_per_rec:                 3070
  *** grid_quadv0:                    calc_type:                    1
  *** grid_quadv0:                    grid_written: F
  *** grid_quadv0:                    grad: T
  *** grid_quadv0:                    kske: F
  *** grid_quadv0:                    kslap: F
  *** grid_quadv0:                    do_scf: T
  *** grid_quadv0:                    fde_option:                    0
  *** grid_quadv0:                    n_per_rec:                 3070
  *** grid_quadv0:                    calc_type:                    1
  *** grid_quadv0:                    grid_written: F
  *** grid_quadv0:                    grad: T
  *** grid_quadv0:                    kske: F
  *** grid_quadv0:                    kslap: F
  *** grid_quadv0:                    do_scf: T
  *** grid_quadv0:                    fde_option:                    0
  *** grid_quadv0:                    n_per_rec:                 3070
  *** grid_quadv0:                    calc_type:                    1
  *** grid_quadv0:                    grid_written: F
  *** grid_quadv0:                    grad: T
  *** grid_quadv0:                    kske: F
  *** grid_quadv0:                    kslap: F
  *** grid_quadv0:                    do_scf: T
  *** grid_quadv0:                    fde_option:                    0
  *** grid_quadv0:                    n_per_rec:                 3070
  *** grid_quadv0:                    calc_type:                    1
  *** grid_quadv0:                    grid_written: F
  *** grid_quadv0:                    grad: T
  *** grid_quadv0:                    kske: F
  *** grid_quadv0:                    kslap: F
  *** grid_quadv0:                    do_scf: T
  *** grid_quadv0:                    fde_option:                    0
  *** grid_quadv0:                    n_per_rec:                 3070
   0: nuse=   8 avail= 12500000Mb on .
   1: nuse=   8 avail= 12500000Mb on .
   2: nuse=   8 avail= 12500000Mb on .
   3: nuse=   8 avail= 12500000Mb on .
   4: nuse=   8 avail= 12500000Mb on .
   5: nuse=   8 avail= 12500000Mb on .
   6: nuse=   8 avail= 12500000Mb on .
   7: nuse=   8 avail= 12500000Mb on .
 l_cube input   11.00

  atom type   l_cube   no. cubes   segmts   rad   sub
 ----------- -------- ----------- -------- ----- -----
        1      9.60       124         5      24     8

 Grid_pts file          = ./ge.gridpts.0
 Record size in doubles =  12289        No. of grid_pts per rec  =   3070
 Max. records in memory =     12        Max. recs in file   = 126656358

 me   0 NQTOTC NQ/cube   21079     288
 me   1 NQTOTC NQ/cube   10870     603
 me   2 NQTOTC NQ/cube   12133    1733
 me   3 NQTOTC NQ/cube   13241    4413
 me   4 NQTOTC NQ/cube    9885    1412
 me   5 NQTOTC NQ/cube   10910    1818
 me   6 NQTOTC NQ/cube   14894    1861
 me   7 NQTOTC NQ/cube   11936    5968

 XC quadr. integrated density :      32.000000 npts:   104569 nctrs:        1

    Fock_xc Build Time:          0.2s


     <<<<<<    Before call to GETVCOUL.   >>>>>>
     <<<<<< date:  Apr 15  time: 00:10:46 >>>>>>



     <<<<<<    End of parallel region.    >>>>>>
     <<<<<< date:  Apr 15  time: 00:10:46 >>>>>>

    Total Fock Matrix Build Time:          2.3s
 Etnew, Ecore, Ecoul, Exc(1), Exc(2), Totsic:   -2076.6256728098638       -2892.4679964545753        894.51288020182596       -78.670556557114352        0.0000000000000000        0.0000000000000000     
  delta =   -2076.6256728098638     
  delta =   -2076.6256728098638     
  delta =   -2076.6256728098638     


         Total DFT energy =    -2076.625672809864
      One electron energy =    -2892.467996454575
           Coulomb energy =      894.512880201826
    Exchange-Corr. energy =      -78.670556557114
  delta =   -2076.6256728098638     
  delta =   -2076.6256728098638     
  delta =   -2076.6256728098638     
  delta =   -2076.6256728098638     
  delta =   -2076.6256728098638     
 Nuclear repulsion energy =        0.000000000000

 Numeric. integr. density =       31.999999998901

     Total iterative time =     10.4s




     <<<<<<        calling diis driver    >>>>>>
     <<<<<< date:  Apr 15  time: 00:10:46 >>>>>>

 nhist                     1  pulay matrix 
   0.0000E+00
  -1.0000E+00   6.4702E-01


     <<<<<<         called diis driver    >>>>>>
     <<<<<< date:  Apr 15  time: 00:10:46 >>>>>>


 global array: fock transf[1:69,1:69],  handle: -940 

            1           2           3           4           5           6  
       ----------- ----------- ----------- ----------- ----------- -----------
   1      11.28285     0.00000     0.00000     0.00000   -18.22865    -6.18981
   2       0.00000     2.74120     0.00006     0.00000     0.00000    -0.00000
   3       0.00000     0.00006     2.73786    -0.00032     0.00000    -0.00000
   4       0.00000     0.00000    -0.00032     2.74118     0.00000    -0.00000
   5     -18.22865     0.00000     0.00000     0.00000    46.47095    21.08981
   6      -6.18981    -0.00000    -0.00000    -0.00000    21.08981    11.81830
   7       0.00000    -0.43387     0.00798    -0.19834     0.00000    -0.00000
   8       0.00000    -0.19469    -0.11047     0.42140     0.00000    -0.00000
   9       0.00000     0.03871    -0.46534    -0.10349     0.00000    -0.00000
  10      -0.47224     0.00000     0.00000     0.00000     1.64152     1.19255
  11       0.00000     0.00014     0.00035    -0.00007     0.00000    -0.00000
  12       0.66418     0.00000     0.00000     0.00000    -1.75967    -1.06888
  13       0.00000    -0.00019    -0.00095    -0.00001     0.00000    -0.00000
  14      -0.00000     0.00024    -0.00048     0.00023    -0.00000     0.00000
  15      -0.00000    -0.00000     0.00063    -0.00003    -0.00000     0.00000
  16       0.00008     0.00000     0.00000     0.00000    -0.00004     0.00011
  17       0.00008     0.00000     0.00000     0.00000    -0.00004     0.00012
  18      -0.00061     0.00000     0.00000     0.00000     0.00030    -0.00089
  19      -0.00000     0.00565    -0.01693     0.02222    -0.00000     0.00000
  20       0.00000     0.01612     0.01953     0.01112     0.00000    -0.00000
  21       0.00000     0.02265    -0.00860    -0.01325     0.00000    -0.00000
  22       0.00000     0.00031     0.00023    -0.00020     0.00000    -0.00000
  23       0.00094     0.00000     0.00000     0.00000    -0.00046     0.00137
  24       0.00064    -0.00000    -0.00000    -0.00000    -0.00032     0.00094
  25       0.00000     0.11941    -0.03315     0.17985     0.00000    -0.00000
  26      -0.00000    -0.15565     0.09532     0.12109    -0.00000     0.00000
  27      -0.00000    -0.09606    -0.19452     0.02764    -0.00000     0.00000
  28       0.00000    -0.00023     0.00065    -0.00056     0.00000    -0.00000
  29      -0.00000     0.00062     0.00043     0.00015    -0.00000     0.00000
  30      -0.00000    -0.00015     0.00013    -0.00010    -0.00000     0.00000
  31      -0.00002     0.00000     0.00000     0.00000    -0.00002    -0.00002
  32       0.00000     0.00000     0.00000     0.00000     0.00000     0.00000
  33      -0.00008     0.00000     0.00000     0.00000    -0.00011    -0.00010
  34      -0.00000    -0.01664    -0.01960     0.02763    -0.00000     0.00000
  35      -0.00000    -0.00239    -0.03051    -0.02137    -0.00000     0.00000
  36      -0.00000    -0.03334     0.01134    -0.01251    -0.00000     0.00000
  37      -0.00001     0.00000     0.00000     0.00000    -0.00000     0.00010
  38      -0.00002    -0.00000    -0.00000    -0.00000    -0.00001     0.00018
  39       0.00001    -0.00000    -0.00000    -0.00000     0.00000    -0.00006
  40       0.02232    -0.00000    -0.00000    -0.00000     0.06715     0.21222
  41       0.00005     0.00000     0.00000     0.00000     0.00007     0.00007
  42      -0.00014     0.00000     0.00000     0.00000    -0.00020    -0.00018
  43       0.00000    -0.03321    -0.00095     0.00276     0.00000    -0.00000
  44      -0.00000    -0.00094     0.02992    -0.00702    -0.00000     0.00000
  45      -0.00000     0.00281     0.00525     0.03227    -0.00000     0.00000
  46      -0.00008     0.00000     0.00000     0.00000    -0.00012     0.00000
  47      -0.00009     0.00000     0.00000     0.00000    -0.00012     0.00000
  48      -0.00013    -0.00000    -0.00000    -0.00000    -0.00019     0.00000
  49      -0.00000    -0.00000    -0.00000    -0.00000    -0.00000     0.00002
  50      -0.00003     0.00000     0.00000     0.00000    -0.00002     0.00040
  51       0.16600     0.00000     0.00000     0.00000    -0.34351    -0.03870
  52      -0.00000     0.00542    -0.03041    -0.01031    -0.00000     0.00000
  53      -0.00000    -0.01367     0.00726    -0.02839    -0.00000     0.00000
  54      -0.00000    -0.02879    -0.00916     0.01154    -0.00000     0.00000
  55       0.05804     0.00000     0.00000     0.00000    -0.18732    -0.12883
  56      -0.00000     0.00138    -0.00260     0.01001    -0.00000     0.00000
  57      -0.00000     0.00208     0.01103     0.00228    -0.00000     0.00000
  58      -0.00000     0.01011    -0.00198    -0.00184    -0.00000     0.00000
  59       0.00019    -0.00000    -0.00000    -0.00000     0.00026    -0.00001
  60      -0.00027    -0.00000    -0.00000    -0.00000    -0.00039     0.00001
  61      -0.00000    -0.00141     0.04035     0.00325    -0.00000     0.00000
  62      -0.00000     0.01183     0.00333    -0.03792    -0.00000     0.00000
  63      -0.00000     0.03803     0.00038     0.01189    -0.00000     0.00000
  64      -0.06100     0.00000     0.00000     0.00000     0.22110     0.13263
  65      -0.28804    -0.00000    -0.00000    -0.00000     0.63995     0.22358
  66      -0.00000     0.00206    -0.00896     0.01338    -0.00000     0.00000
  67       0.00000    -0.00527     0.00992     0.01021     0.00000    -0.00000
  68       0.00000     0.01599     0.00461     0.00168     0.00000    -0.00000
  69      -0.08011     0.00000     0.00000     0.00000     0.13822     0.02940

            7           8           9          10          11          12  
       ----------- ----------- ----------- ----------- ----------- -----------
   1       0.00000     0.00000     0.00000    -0.47224     0.00000     0.66418
   2      -0.43387    -0.19469     0.03871     0.00000     0.00014     0.00000
   3       0.00798    -0.11047    -0.46534     0.00000     0.00035     0.00000
   4      -0.19834     0.42140    -0.10349     0.00000    -0.00007     0.00000
   5       0.00000     0.00000     0.00000     1.64152     0.00000    -1.75967
   6      -0.00000    -0.00000    -0.00000     1.19255    -0.00000    -1.06888
   7       0.71103     0.00001    -0.00001     0.00000    -0.00012     0.00000
   8       0.00001     0.71097    -0.00033     0.00000    -0.00024     0.00000
   9      -0.00001    -0.00033     0.70699     0.00000    -0.00027     0.00000
  10       0.00000     0.00000     0.00000     0.45011     0.00000    -0.57301
  11      -0.00012    -0.00024    -0.00027     0.00000     1.04594     0.00000
  12       0.00000     0.00000     0.00000    -0.57301     0.00000     2.30492
  13       0.00019     0.00033     0.00079     0.00000    -0.00053     0.00000
  14      -0.00050     0.00029     0.00038    -0.00000    -0.00001    -0.00000
  15      -0.00001    -0.00016    -0.00053    -0.00000     0.00021    -0.00000
  16       0.00000     0.00000     0.00000     0.00003     0.00000    -0.00013
  17       0.00000     0.00000     0.00000     0.00003     0.00000    -0.00014
  18       0.00000     0.00000     0.00000    -0.00022    -0.00000     0.00103
  19      -0.12171     0.17539     0.09954    -0.00000     0.00030    -0.00000
  20      -0.15711    -0.00996    -0.17411     0.00000    -0.00032     0.00000
  21      -0.12625    -0.15685     0.12039     0.00000    -0.00055     0.00000
  22      -0.00018    -0.00032    -0.00015     0.00000    -0.34542     0.00000
  23       0.00000     0.00000     0.00000     0.00034    -0.00000    -0.00159
  24      -0.00000    -0.00000    -0.00000     0.00023    -0.00000    -0.00110
  25      -0.41222     0.26403     0.00689     0.00000    -0.00003     0.00000
  26       0.20801     0.33282    -0.29323    -0.00000    -0.00003    -0.00000
  27       0.16274     0.24325     0.39197    -0.00000    -0.00030    -0.00000
  28       0.00038    -0.00050    -0.00043     0.00000    -0.00021     0.00000
  29      -0.00055    -0.00022    -0.00032    -0.00000    -0.00027    -0.00000
  30       0.00020    -0.00008    -0.00009    -0.00000    -0.00001    -0.00000
  31       0.00000     0.00000     0.00000     0.00003     0.00000    -0.00006
  32       0.00000     0.00000     0.00000    -0.00000     0.00000     0.00001
  33       0.00000     0.00000     0.00000     0.00015    -0.00000    -0.00028
  34       0.00737     0.07985     0.02487    -0.00000    -0.00048    -0.00000
  35       0.02356    -0.02532     0.07576    -0.00000    -0.00020    -0.00000
  36       0.08010     0.00014    -0.02448    -0.00000    -0.00017    -0.00000
  37       0.00000     0.00000     0.00000     0.00021     0.00000    -0.00083
  38      -0.00000     0.00000    -0.00000     0.00039    -0.00000    -0.00156
  39      -0.00000    -0.00000    -0.00000    -0.00013     0.00000     0.00052
  40      -0.00000    -0.00000    -0.00000     0.20989    -0.00000    -0.09880
  41       0.00000     0.00000     0.00000    -0.00009     0.00000     0.00018
  42       0.00000     0.00000     0.00000     0.00026     0.00000    -0.00049
  43      -0.01787    -0.01001     0.00196     0.00000    -0.00039     0.00000
  44      -0.00266     0.00784     0.02015    -0.00000     0.00022    -0.00000
  45       0.00979    -0.01621     0.00895    -0.00000    -0.00014    -0.00000
  46       0.00000     0.00000     0.00000     0.00009     0.00000     0.00049
  47       0.00000     0.00000     0.00000     0.00009     0.00000     0.00051
  48      -0.00000     0.00000    -0.00000     0.00013    -0.00000     0.00077
  49      -0.00000    -0.00000    -0.00000     0.00005    -0.00000    -0.00021
  50       0.00000     0.00000     0.00000     0.00084     0.00000    -0.00339
  51       0.00000     0.00000     0.00000    -0.01079     0.00000     1.72579
  52      -0.00035    -0.00133     0.00959    -0.00000     0.00000    -0.00000
  53       0.00741    -0.00644    -0.00058    -0.00000     0.00001    -0.00000
  54       0.00646     0.00731     0.00119    -0.00000    -0.00004    -0.00000
  55       0.00000     0.00000     0.00000    -0.13380     0.00000     1.83975
  56      -0.03247     0.05279     0.00229    -0.00000     0.00023    -0.00000
  57      -0.01574    -0.00742    -0.06105    -0.00000    -0.00006    -0.00000
  58      -0.05039    -0.03170     0.01759    -0.00000    -0.00045    -0.00000
  59      -0.00000    -0.00000    -0.00000    -0.00019    -0.00000    -0.00108
  60      -0.00000    -0.00000    -0.00000     0.00028     0.00000     0.00160
  61       0.00035    -0.00361    -0.02519    -0.00000    -0.00019    -0.00000
  62       0.00293    -0.02262     0.00358    -0.00000    -0.00055    -0.00000
  63      -0.02284    -0.00295     0.00007    -0.00000    -0.00043    -0.00000
  64       0.00000     0.00000     0.00000     0.05209     0.00000    -0.74403
  65      -0.00000    -0.00000    -0.00000     0.06665    -0.00000    -1.37201
  66      -0.00458     0.00799     0.00461    -0.00000     0.00031    -0.00000
  67       0.00043     0.00525    -0.00905     0.00000     0.00038     0.00000
  68      -0.00916    -0.00375    -0.00272     0.00000    -0.00056     0.00000
  69       0.00000     0.00000     0.00000    -0.00871     0.00000    -0.20588

           13          14          15          16          17          18  
       ----------- ----------- ----------- ----------- ----------- -----------
   1       0.00000    -0.00000    -0.00000     0.00008     0.00008    -0.00061
   2      -0.00019     0.00024    -0.00000     0.00000     0.00000     0.00000
   3      -0.00095    -0.00048     0.00063     0.00000     0.00000     0.00000
   4      -0.00001     0.00023    -0.00003     0.00000     0.00000     0.00000
   5       0.00000    -0.00000    -0.00000    -0.00004    -0.00004     0.00030
   6      -0.00000     0.00000     0.00000     0.00011     0.00012    -0.00089
   7       0.00019    -0.00050    -0.00001     0.00000     0.00000     0.00000
   8       0.00033     0.00029    -0.00016     0.00000     0.00000     0.00000
   9       0.00079     0.00038    -0.00053     0.00000     0.00000     0.00000
  10       0.00000    -0.00000    -0.00000     0.00003     0.00003    -0.00022
  11      -0.00053    -0.00001     0.00021     0.00000     0.00000    -0.00000
  12       0.00000    -0.00000    -0.00000    -0.00013    -0.00014     0.00103
  13       1.04655    -0.00011     0.00011     0.00000     0.00000     0.00000
  14      -0.00011     1.04586    -0.00043    -0.00000    -0.00000    -0.00000
  15       0.00011    -0.00043     1.04689    -0.00000    -0.00000    -0.00000
  16       0.00000    -0.00000    -0.00000     0.94364    -0.00134    -0.00040
  17       0.00000    -0.00000    -0.00000    -0.00134     0.94467     0.00033
  18       0.00000    -0.00000    -0.00000    -0.00040     0.00033     0.94304
  19      -0.00001    -0.00037     0.00111    -0.00000     0.00000    -0.00000
  20       0.00074    -0.00029     0.00045     0.00000     0.00000     0.00000
  21       0.00077    -0.00014    -0.00001     0.00000     0.00000     0.00000
  22       0.00031     0.00004    -0.00014     0.00000     0.00000    -0.00000
  23       0.00000    -0.00000    -0.00000    -0.00042    -0.00008    -0.00060
  24      -0.00000     0.00000     0.00000     0.00053     0.00058    -0.00064
  25      -0.00005     0.00014    -0.00033     0.00000     0.00000     0.00000
  26      -0.00011    -0.00015     0.00016    -0.00000     0.00000    -0.00000
  27       0.00069     0.00024    -0.00041    -0.00000    -0.00000    -0.00000
  28       0.15975     0.29372    -0.08689     0.00000     0.00000     0.00000
  29       0.27730    -0.17982    -0.10097    -0.00000    -0.00000    -0.00000
  30      -0.13119    -0.02249    -0.31952    -0.00000    -0.00000    -0.00000
  31       0.00000    -0.00000    -0.00000    -0.31689    -0.10730    -0.12886
  32       0.00000    -0.00000    -0.00000     0.12342    -0.33565    -0.02412
  33       0.00000    -0.00000    -0.00000     0.11343     0.06572    -0.33373
  34       0.00053     0.00010    -0.00058    -0.00000    -0.00000    -0.00000
  35       0.00055     0.00010     0.00004    -0.00000    -0.00000    -0.00000
  36       0.00048    -0.00036     0.00072    -0.00000    -0.00000    -0.00000
  37       0.00000    -0.00000    -0.00000    -0.03404    -0.15278    -0.11481
  38      -0.00000     0.00000     0.00000     0.10010     0.08506    -0.14330
  39      -0.00000     0.00000     0.00000     0.16274    -0.08395     0.06411
  40      -0.00000     0.00000     0.00000    -0.00011    -0.00013     0.00093
  41       0.00000    -0.00000    -0.00000    -0.00002    -0.00002     0.00002
  42       0.00000    -0.00000    -0.00000     0.00000    -0.00000    -0.00005
  43       0.00060    -0.00043     0.00012     0.00000     0.00000     0.00000
  44      -0.00031    -0.00027     0.00034    -0.00000    -0.00000    -0.00000
  45      -0.00005     0.00045    -0.00037    -0.00000    -0.00000    -0.00000
  46       0.00000    -0.00000    -0.00000     0.09512     0.01581     0.06978
  47       0.00000    -0.00000    -0.00000    -0.06215     0.08306     0.06296
  48      -0.00000     0.00000     0.00000    -0.03870    -0.08655     0.07185
  49      -0.00000     0.00000     0.00000     0.00007     0.00006    -0.00005
  50       0.00000    -0.00000    -0.00000     0.00008     0.00007    -0.00059
  51      -0.00000    -0.00000    -0.00000    -0.00000    -0.00000     0.00001
  52       0.00001     0.00001    -0.00001    -0.00000    -0.00000    -0.00000
  53      -0.00000    -0.00008     0.00002    -0.00000    -0.00000    -0.00000
  54       0.00005    -0.00002    -0.00001    -0.00000    -0.00000    -0.00000
  55       0.00000    -0.00000    -0.00000     0.00001     0.00001    -0.00011
  56      -0.00017    -0.00093     0.00022    -0.00000    -0.00000    -0.00000
  57       0.00013    -0.00024     0.00000    -0.00000    -0.00000    -0.00000
  58       0.00059    -0.00057    -0.00008    -0.00000    -0.00000    -0.00000
  59      -0.00000     0.00000     0.00000     0.00035     0.00038     0.00064
  60      -0.00000     0.00000     0.00000     0.00062     0.00032    -0.00124
  61       0.00052     0.00030    -0.00036    -0.00000    -0.00000    -0.00000
  62       0.00054     0.00077    -0.00037    -0.00000     0.00000    -0.00000
  63       0.00070    -0.00122     0.00009    -0.00000    -0.00000    -0.00000
  64       0.00000    -0.00000    -0.00000     0.00002     0.00002    -0.00013
  65      -0.00000     0.00000     0.00000    -0.00008    -0.00008     0.00061
  66      -0.00030    -0.00117     0.00038    -0.00000    -0.00000    -0.00000
  67      -0.00032    -0.00028     0.00013     0.00000     0.00000     0.00000
  68       0.00085    -0.00102    -0.00005     0.00000     0.00000     0.00000
  69       0.00000    -0.00000    -0.00000     0.00027     0.00030    -0.00220

           19          20          21          22          23          24  
       ----------- ----------- ----------- ----------- ----------- -----------
   1      -0.00000     0.00000     0.00000     0.00000     0.00094     0.00064
   2       0.00565     0.01612     0.02265     0.00031     0.00000    -0.00000
   3      -0.01693     0.01953    -0.00860     0.00023     0.00000    -0.00000
   4       0.02222     0.01112    -0.01325    -0.00020     0.00000    -0.00000
   5      -0.00000     0.00000     0.00000     0.00000    -0.00046    -0.00032
   6       0.00000    -0.00000    -0.00000    -0.00000     0.00137     0.00094
   7      -0.12171    -0.15711    -0.12625    -0.00018     0.00000    -0.00000
   8       0.17539    -0.00996    -0.15685    -0.00032     0.00000    -0.00000
   9       0.09954    -0.17411     0.12039    -0.00015     0.00000    -0.00000
  10      -0.00000     0.00000     0.00000     0.00000     0.00034     0.00023
  11       0.00030    -0.00032    -0.00055    -0.34542    -0.00000    -0.00000
  12      -0.00000     0.00000     0.00000     0.00000    -0.00159    -0.00110
  13      -0.00001     0.00074     0.00077     0.00031     0.00000    -0.00000
  14      -0.00037    -0.00029    -0.00014     0.00004    -0.00000     0.00000
  15       0.00111     0.00045    -0.00001    -0.00014    -0.00000     0.00000
  16      -0.00000     0.00000     0.00000     0.00000    -0.00042     0.00053
  17       0.00000     0.00000     0.00000     0.00000    -0.00008     0.00058
  18      -0.00000     0.00000     0.00000    -0.00000    -0.00060    -0.00064
  19       1.04550     0.00052    -0.00061    -0.00020    -0.00000     0.00000
[...]
  46       0.00000    -0.00000    -0.00000     0.00024     0.00000    -0.00000
  47      -0.00001    -0.00002     0.00014     0.58256    -0.00001     0.00001
  48      -0.00000    -0.00000     0.00000     0.00036    -0.00000     0.00000
  49      -0.00001    -0.00002     0.00014     0.58324    -0.00001     0.00001
  50      -0.75664    -0.67909    -4.88147    -0.00039    -2.62588   -15.58044
  51      -1.15496    -4.77058     0.85061     0.00011    -4.00645     6.10277
  52      -4.64482     1.29518     0.57166    -0.00004   -16.11251     1.02511
  53      -0.75755    -0.68209    -4.88222    -0.00039    -2.62561   -15.58040
  54      -0.00855    -0.01307    -0.01537     0.00000     0.00246     0.00370
  55      -0.77369    -0.68083    -4.91482    -0.00039    -2.62097   -15.57077
  56      -1.15480    -4.77141     0.85372     0.00011    -4.00649     6.10181
  57      -4.64854     1.27979     0.58654    -0.00004   -16.11144     1.01980
  58      -1.18050    -4.79941     0.86169     0.00011    -3.99910     6.09775
  59      -4.67720     1.30602     0.58744    -0.00004   -16.10320     1.02115
  60      -0.70449    -0.61809    -4.44303    -0.00017    -1.15223    -6.82059
  61      -1.07472    -4.34158     0.77797     0.00005    -1.75815     2.67084
  62      -4.32216     1.18095     0.53544    -0.00002    -7.07064     0.44574
  63      -0.70412    -0.61692    -4.44274    -0.00017    -1.15235    -6.82060
  64       0.00347     0.00510     0.00600    -0.00000    -0.00113    -0.00176
  65      -0.69758    -0.61741    -4.43001    -0.00017    -1.15448    -6.82518
  66      -1.07479    -4.34125     0.77676     0.00005    -1.75813     2.67129
  67      -4.32065     1.18696     0.52963    -0.00002    -7.07113     0.44826
  68      -1.06438    -4.33032     0.77364     0.00005    -1.76152     2.67322
  69      -4.30904     1.17672     0.52928    -0.00002    -7.07491     0.44762

           67          68          69  
       ----------- ----------- -----------
   1       0.00000     0.91744     1.03549
   2       0.00001     6.74512    15.64607
   3       0.00004    28.01990    30.83284
   4       0.00005    39.82625     9.96411
   5      -0.00002   -18.00719    19.58502
   6       0.00002    31.65098     5.87828
   7      -0.00000     4.05619     1.14120
   8       0.39145    -0.00003    -0.00000
   9       1.05408     0.00001     0.00000
  10      -0.32589     0.00000     0.00000
  11       4.71668    -0.00034    -0.00002
  12      12.70092     0.00012     0.00001
  13      -3.92680     0.00004     0.00000
  14      11.21127    -0.00079    -0.00006
  15      30.18931     0.00027     0.00002
  16      -9.33377     0.00009     0.00000
  17      -2.76447     0.00021     0.00001
  18      -7.44407    -0.00007    -0.00000
  19       2.30152    -0.00002    -0.00000
  20       2.43625    -0.00017    -0.00001
  21       6.56025     0.00006     0.00000
  22      -2.02826     0.00002    -0.00000
  23      -0.20867     0.00001     0.00000
  24      -0.56190    -0.00000    -0.00000
  25       0.17372    -0.00000     0.00000
  26      -0.00000    -0.67055   -18.17036
  27      -0.00000    -0.00007     0.00000
  28       0.00000    -0.00028     0.00000
  29      -0.00000    -0.67058   -18.17036
  30      -0.00000    -0.00042     0.00000
  31      -0.00000    -0.67137   -18.17035
  32      -0.00001   -10.13228    -7.95450
  33       0.00000     0.00023    -0.00000
  34      -0.00000     0.00092    -0.00001
  35      -0.00001   -10.13218    -7.95450
  36       0.00000     0.00140    -0.00002
  37      -0.00001   -10.12954    -7.95454
  38      -0.00002   -15.87619    -3.12184
  39      -0.00000    -0.00020     0.00000
  40       0.00000    -0.00079     0.00002
  41      -0.00001   -15.87628    -3.12184
  42      -0.00000    -0.00120     0.00002
  43      -0.00001   -15.87855    -3.12180
  44       0.00000    -3.26071    -0.76588
  45       0.00000     0.00008    -0.00000
  46      -0.00000     0.00032    -0.00001
  47       0.00000    -3.26068    -0.76588
  48       0.00000     0.00048    -0.00001
  49       0.00000    -3.25977    -0.76589
  50      -5.60540     0.00039     0.00003
  51     -15.09372    -0.00013    -0.00001
  52       4.66788    -0.00005    -0.00000
  53      -5.60447     0.00039     0.00003
  54       0.00478    -0.00000    -0.00000
  55      -5.60283     0.00039     0.00003
  56     -15.09367    -0.00013    -0.00001
  57       4.67147    -0.00005    -0.00000
  58     -15.08595    -0.00013    -0.00001
  59       4.66372    -0.00005    -0.00000
  60      -2.45385     0.00018     0.00001
  61      -6.60779    -0.00006    -0.00000
  62       2.04235    -0.00002     0.00000
  63      -2.45429     0.00018     0.00001
  64      -0.00227     0.00000     0.00000
  65      -2.45507     0.00018     0.00001
  66      -6.60781    -0.00006    -0.00000
  67       2.04064    -0.00002     0.00000
  68      -6.61148    -0.00006    -0.00000
  69       2.04432    -0.00002     0.00000
  int_init: cando_txs set to always be  F
                                NWChem TDDFT Module
                                -------------------


            General Information
            -------------------
           No. of orbitals :     138
            Alpha orbitals :      69
             Beta orbitals :      69
        Alpha frozen cores :       0
         Beta frozen cores :       0
     Alpha frozen virtuals :       0
      Beta frozen virtuals :       0
         Spin multiplicity :       3
    Number of AO functions :      69
        Use of symmetry is : off
      Symmetry adaption is : off
         Schwarz screening :  0.10D-07

              XC Information
              --------------
              Hartree-Fock (Exact) Exchange   1.00          
              LC-wPBE(h)Exchange Functional   1.00          
     Perdew 1991 LDA Correlation Functional   1.00 local    
    PerdewBurkeErnz. Correlation Functional   1.00 non-local
           Alpha           :  0.00
           Beta            :  1.00
           Gamma           :  0.25

             TDDFT Information
             -----------------
          Calculation type : TDDFT             
         Wavefunction type : Unrestricted
          No. of electrons :      32
           Alpha electrons :      17
            Beta electrons :      15
              No. of roots :       5
          Max subspacesize :    5000
            Max iterations :     100
               Target root :       1
           Target symmetry : none
      Symmetry restriction : off
                 Algorithm : Optimal
        Davidson threshold :  0.10D-03

            Memory Information
            ------------------
          Available GA space size is       52428790478 doubles
          Available MA space size is        4194422260 doubles
          Length of a trial vector is          884     810
          Algorithm : Incore multiple tensor contraction
          Estimated peak GA usage is          34696788 doubles
          Estimated peak MA usage is             18000 doubles

    5 smallest eigenvalue differences (eV) 
--------------------------------------------------------
  No. Spin  Occ  Vir  Irrep   E(Occ)    E(Vir)   E(Diff)
--------------------------------------------------------
    1    1   17   18 a        -0.269    -0.056     5.790
    2    1   16   18 a        -0.269    -0.056     5.790
    3    1   17   19 a        -0.269     0.031     8.144
    4    1   16   19 a        -0.269     0.031     8.144
    5    1   17   20 a        -0.269     0.054     8.764
--------------------------------------------------------

  Entering Davidson iterations
  Unrestricted

  Iter   NTrls   NConv    DeltaV     DeltaE      Time   
  ----  ------  ------  ---------  ---------  --------- 
    1      5       0     0.60E-01   0.10+100       10.6
    2     15       0     0.28E-01   0.94E-02       13.5
    3     25       0     0.92E-02   0.51E-03       13.6
    4     33       1     0.18E-02   0.32E-04       12.5
    5     39       2     0.35E-03   0.70E-06       11.4
    6     44       5     0.75E-04   0.47E-07       10.8
  ----  ------  ------  ---------  ---------  --------- 
  Convergence criterion met

  Ground state a       -2076.663147965536 a.u.
  <S2> =   2.0042

  ----------------------------------------------------------------------------
  Root   1         a              0.000021389 a.u.                0.0006 eV 
  <S2> =   2.0043
  ----------------------------------------------------------------------------
     Transition Moments    X  0.00000   Y  0.00000   Z  0.00000
     Transition Moments   XX -3.53431  XY -5.48888  XZ -9.86135
     Transition Moments   YY -8.52178  YZ-15.63687  ZZ 12.05609
     Dipole Oscillator Strength                    0.0000000000
     Electric Quadrupole                           0.0000000000
     Magnetic Dipole                               0.0000000000
     Total Oscillator Strength                     0.0000000000

     Occ.   15 alpha a   ---  Virt.   25 alpha a    0.17209 X
     Occ.   15 alpha a   ---  Virt.   25 alpha a    0.17202 Y
     Occ.   15 alpha a   ---  Virt.   34 alpha a    0.14747 X
     Occ.   15 alpha a   ---  Virt.   34 alpha a    0.14743 Y
     Occ.   16 alpha a   ---  Virt.   18 alpha a    0.97729 X
     Occ.   16 alpha a   ---  Virt.   18 alpha a    0.96368 Y
     Occ.   16 alpha a   ---  Virt.   20 alpha a    0.11342 X
     Occ.   16 alpha a   ---  Virt.   20 alpha a    0.11188 Y
     Occ.   16 alpha a   ---  Virt.   29 alpha a   -0.05602 X
     Occ.   16 alpha a   ---  Virt.   29 alpha a   -0.05527 Y
     Occ.   17 alpha a   ---  Virt.   18 alpha a    5.88259 X
     Occ.   17 alpha a   ---  Virt.   18 alpha a    5.80065 Y
     Occ.   17 alpha a   ---  Virt.   20 alpha a    0.68271 X
     Occ.   17 alpha a   ---  Virt.   20 alpha a    0.67346 Y
     Occ.   17 alpha a   ---  Virt.   29 alpha a   -0.33723 X
     Occ.   17 alpha a   ---  Virt.   29 alpha a   -0.33271 Y
     Occ.   17 alpha a   ---  Virt.   45 alpha a    0.05025 X
     Occ.   15 beta  a   ---  Virt.   24 beta  a   -0.17415 X
     Occ.   15 beta  a   ---  Virt.   24 beta  a   -0.17413 Y
     Occ.   15 beta  a   ---  Virt.   33 beta  a   -0.29968 X
     Occ.   15 beta  a   ---  Virt.   33 beta  a   -0.29967 Y
     Occ.   15 beta  a   ---  Virt.   50 beta  a   -0.12918 X
     Occ.   15 beta  a   ---  Virt.   50 beta  a   -0.12918 Y
  ----------------------------------------------------------------------------
  Root   2         a              0.000021394 a.u.                0.0006 eV 
  <S2> =   2.0043
  ----------------------------------------------------------------------------
     Transition Moments    X  0.00000   Y -0.00000   Z -0.00000
     Transition Moments   XX -5.82119  XY -2.59387  XZ-17.84514
     Transition Moments   YY  5.63676  YZ 11.35745  ZZ  0.18443
     Dipole Oscillator Strength                    0.0000000000
     Electric Quadrupole                           0.0000000000
     Magnetic Dipole                               0.0000000000
     Total Oscillator Strength                     0.0000000000

     Occ.   15 alpha a   ---  Virt.   26 alpha a    0.17207 X
     Occ.   15 alpha a   ---  Virt.   26 alpha a    0.17200 Y
     Occ.   15 alpha a   ---  Virt.   35 alpha a    0.14746 X
     Occ.   15 alpha a   ---  Virt.   35 alpha a    0.14742 Y
     Occ.   16 alpha a   ---  Virt.   18 alpha a    5.88200 X
     Occ.   16 alpha a   ---  Virt.   18 alpha a    5.80004 Y
     Occ.   16 alpha a   ---  Virt.   20 alpha a    0.68264 X
     Occ.   16 alpha a   ---  Virt.   20 alpha a    0.67339 Y
     Occ.   16 alpha a   ---  Virt.   29 alpha a   -0.33719 X
     Occ.   16 alpha a   ---  Virt.   29 alpha a   -0.33268 Y
     Occ.   16 alpha a   ---  Virt.   45 alpha a    0.05025 X
     Occ.   17 alpha a   ---  Virt.   18 alpha a   -0.97719 X
     Occ.   17 alpha a   ---  Virt.   18 alpha a   -0.96357 Y
     Occ.   17 alpha a   ---  Virt.   20 alpha a   -0.11341 X
     Occ.   17 alpha a   ---  Virt.   20 alpha a   -0.11187 Y
     Occ.   17 alpha a   ---  Virt.   29 alpha a    0.05602 X
     Occ.   17 alpha a   ---  Virt.   29 alpha a    0.05527 Y
     Occ.   15 beta  a   ---  Virt.   25 beta  a   -0.17413 X
     Occ.   15 beta  a   ---  Virt.   25 beta  a   -0.17411 Y
     Occ.   15 beta  a   ---  Virt.   34 beta  a   -0.29965 X
     Occ.   15 beta  a   ---  Virt.   34 beta  a   -0.29964 Y
     Occ.   15 beta  a   ---  Virt.   51 beta  a   -0.12917 X
     Occ.   15 beta  a   ---  Virt.   51 beta  a   -0.12916 Y
  ----------------------------------------------------------------------------
  Root   3         a              0.162031031 a.u.                4.4091 eV 
  <S2> =   2.0060
  ----------------------------------------------------------------------------
     Transition Moments    X -0.38918   Y -0.88680   Z  0.28393
     Transition Moments   XX  0.00000  XY  0.00000  XZ  0.00000
     Transition Moments   YY  0.00000  YZ  0.00000  ZZ  0.00000
     Dipole Oscillator Strength                    0.1100177123
     Electric Quadrupole                           0.0000000000
     Magnetic Dipole                               0.0000000000
     Total Oscillator Strength                     0.1100177123

     Occ.   17 alpha a   ---  Virt.   19 alpha a    0.95578 X
     Occ.   17 alpha a   ---  Virt.   28 alpha a   -0.28525 X
  ----------------------------------------------------------------------------
  Root   4         a              0.162031031 a.u.                4.4091 eV 
  <S2> =   2.0060
  ----------------------------------------------------------------------------
     Transition Moments    X -0.91770   Y  0.41740   Z  0.04577
     Transition Moments   XX  0.00002  XY  0.00000  XZ  0.00000
     Transition Moments   YY  0.00002  YZ  0.00000  ZZ  0.00002
     Dipole Oscillator Strength                    0.1100177112
     Electric Quadrupole                           0.0000000000
     Magnetic Dipole                               0.0000000000
     Total Oscillator Strength                     0.1100177112

     Occ.   16 alpha a   ---  Virt.   19 alpha a    0.95578 X
     Occ.   16 alpha a   ---  Virt.   28 alpha a   -0.28525 X
  ----------------------------------------------------------------------------
  Root   5         a              0.199901161 a.u.                5.4396 eV 
  <S2> =   2.0046
  ----------------------------------------------------------------------------
     Transition Moments    X -0.00000   Y -0.00000   Z  0.00000
     Transition Moments   XX -0.17658  XY -0.34791  XZ -0.47438
     Transition Moments   YY -0.65060  YZ -1.20539  ZZ  0.82718
     Dipole Oscillator Strength                    0.0000000000
     Electric Quadrupole                           0.0000001007
     Magnetic Dipole                               0.0000000000
     Total Oscillator Strength                     0.0000001007

     Occ.   17 alpha a   ---  Virt.   18 alpha a    0.12233 X
     Occ.   17 alpha a   ---  Virt.   20 alpha a   -0.97322 X
     Occ.   17 alpha a   ---  Virt.   29 alpha a    0.19268 X

              Target root =      1
          Target symmetry = none
      Ground state energy =  -2076.663147965536
        Excitation energy =      0.000021389124
     Excited state energy =  -2076.663126576412

  stored tddft:energy   -2076.6631265764122     

 Task  times  cpu:       86.4s     wall:       98.6s


                                NWChem Input Module
                                -------------------


 Summary of allocated global arrays
-----------------------------------
  No active global arrays


MA_summarize_allocated_blocks: starting scan ...
heap block 'gridpts', handle 72, address 0x126ff1a8:
	type of elements:		double precision
	number of elements:		1048456220
	address of client space:	0x126ff200
	index for client space:		10508695
	total number of bytes:		8387649856
MA_summarize_allocated_blocks: scan completed: 1 heap block, 0 stack blocks
MA usage statistics:

	allocation statistics:
					      heap	     stack
					      ----	     -----
	current number of blocks	         1	         0
	maximum number of blocks	        18	        54
	current total bytes		8387649856	         0
	maximum total bytes		8388837696	 109417528
	maximum total K-bytes		   8388838	    109418
	maximum total M-bytes		      8389	       110


                                     CITATION
                                     --------
                Please cite the following reference when publishing
                           results obtained with NWChem:

          E. Apra, E. J. Bylaska, W. A. de Jong, N. Govind, K. Kowalski,
       T. P. Straatsma, M. Valiev, H. J. J. van Dam, Y. Alexeev, J. Anchell,
       V. Anisimov, F. W. Aquino, R. Atta-Fynn, J. Autschbach, N. P. Bauman,
     J. C. Becca, D. E. Bernholdt, K. Bhaskaran-Nair, S. Bogatko, P. Borowski,
         J. Boschen, J. Brabec, A. Bruner, E. Cauet, Y. Chen, G. N. Chuev,
      C. J. Cramer, J. Daily, M. J. O. Deegan, T. H. Dunning Jr., M. Dupuis,
   K. G. Dyall, G. I. Fann, S. A. Fischer, A. Fonari, H. Fruchtl, L. Gagliardi,
      J. Garza, N. Gawande, S. Ghosh, K. Glaesemann, A. W. Gotz, J. Hammond,
       V. Helms, E. D. Hermes, K. Hirao, S. Hirata, M. Jacquelin, L. Jensen,
   B. G. Johnson, H. Jonsson, R. A. Kendall, M. Klemm, R. Kobayashi, V. Konkov,
      S. Krishnamoorthy, M. Krishnan, Z. Lin, R. D. Lins, R. J. Littlefield,
      A. J. Logsdail, K. Lopata, W. Ma, A. V. Marenich, J. Martin del Campo,
   D. Mejia-Rodriguez, J. E. Moore, J. M. Mullin, T. Nakajima, D. R. Nascimento,
    J. A. Nichols, P. J. Nichols, J. Nieplocha, A. Otero-de-la-Roza, B. Palmer,
    A. Panyala, T. Pirojsirikul, B. Peng, R. Peverati, J. Pittner, L. Pollack,
   R. M. Richard, P. Sadayappan, G. C. Schatz, W. A. Shelton, D. W. Silverstein,
   D. M. A. Smith, T. A. Soares, D. Song, M. Swart, H. L. Taylor, G. S. Thomas,
            V. Tipparaju, D. G. Truhlar, K. Tsemekhman, T. Van Voorhis,
      A. Vazquez-Mayagoitia, P. Verma, O. Villa, A. Vishnu, K. D. Vogiatzis,
        D. Wang, J. H. Weare, M. J. Williamson, T. L. Windus, K. Wolinski,
        A. T. Wong, Q. Wu, C. Yang, Q. Yu, M. Zacharias, Z. Zhang, Y. Zhao,
                                and R. J. Harrison
                        "NWChem: Past, present, and future
                         J. Chem. Phys. 152, 184102 (2020)
                               doi:10.1063/5.0004997

                                      AUTHORS
                                      -------
  E. Apra, E. J. Bylaska, N. Govind, K. Kowalski, M. Valiev, D. Mejia-Rodriguez,
       A. Kunitsa, N. P. Bauman, A. Panyala, W. A. de Jong, T. P. Straatsma,
   H. J. J. van Dam, D. Wang, T. L. Windus, J. Hammond, J. Autschbach, A. Woods,
    K. Bhaskaran-Nair, J. Brabec, K. Lopata, S. A. Fischer, S. Krishnamoorthy,
     M. Jacquelin, W. Ma, M. Klemm, O. Villa, Y. Chen, V. Anisimov, F. Aquino,
     S. Hirata, M. T. Hackler, E. Hermes, L. Jensen, J. E. Moore, J. C. Becca,
      V. Konjkov, T. Risthaus, M. Malagoli, A. Marenich, A. Otero-de-la-Roza,
        J. Mullin, P. Nichols, R. Peverati, J. Pittner, Y. Zhao, P.-D. Fan,
        A. Fonari, M. J. Williamson, R. J. Harrison, J. R. Rehr, M. Dupuis,
     D. Silverstein, D. M. A. Smith, J. Nieplocha, V. Tipparaju, M. Krishnan,
     B. E. Van Kuiken, A. Vazquez-Mayagoitia, M. Swart, Q. Wu, T. Van Voorhis,
     A. A. Auer, M. Nooijen, L. D. Crosby, E. Brown, G. Cisneros, G. I. Fann,
   H. Fruchtl, J. Garza, K. Hirao, R. A. Kendall, J. A. Nichols, K. Tsemekhman,
    K. Wolinski, J. Anchell, D. E. Bernholdt, P. Borowski, T. Clark, D. Clerc,
   H. Dachsel, M. J. O. Deegan, K. Dyall, D. Elwood, E. Glendening, M. Gutowski,
   A. C. Hess, J. Jaffe, B. G. Johnson, J. Ju, R. Kobayashi, R. Kutteh, Z. Lin,
   R. Littlefield, X. Long, B. Meng, T. Nakajima, S. Niu, L. Pollack, M. Rosing,
   K. Glaesemann, G. Sandrone, M. Stave, H. Taylor, G. Thomas, J. H. van Lenthe,
                               A. T. Wong, Z. Zhang.

 Total times  cpu:       86.4s     wall:       99.6s
