 argument  1 = /home/aditisingh4812/nw_chem/nwchem-run/nwchem-run/tddft/open/open_atom/geom-MOL/ge.nw
                                         
                                         


             Northwest Computational Chemistry Package (NWChem) 7.2.3
             --------------------------------------------------------


                    Environmental Molecular Sciences Laboratory
                       Pacific Northwest National Laboratory
                                Richland, WA 99352

                              Copyright (c) 1994-2022
                       Pacific Northwest National Laboratory
                            Battelle Memorial Institute

             NWChem is an open-source computational chemistry package
                        distributed under the terms of the
                      Educational Community License (ECL) 2.0
             A copy of the license is included with this distribution
                              in the LICENSE.TXT file

                                  ACKNOWLEDGMENT
                                  --------------

            This software and its documentation were developed at the
            EMSL at Pacific Northwest National Laboratory, a multiprogram
            national laboratory, operated for the U.S. Department of Energy
            by Battelle under Contract Number DE-AC05-76RL01830. Support
            for this work was provided by the Department of Energy Office
            of Biological and Environmental Research, Office of Basic
            Energy Sciences, and the Office of Advanced Scientific Computing.


           Job information
           ---------------

    hostname        = p17
    program         = /home/aditisingh4812/nw_chem/nwchem-7.2.3-release.revision-d690e065-srconly.2024-08-27/nwchem-7.2.3/bin/LINUX64/nwchem
    date            = Thu May  8 11:51:39 2025

    compiled        = Mon_Apr_07_18:51:54_2025
    source          = /home/aditisingh4812/nw_chem/nwchem-7.2.3-release.revision-d690e065-srconly.2024-08-27/nwchem-7.2.3
    nwchem branch   = 7.2.3
    nwchem revision = d690e065
    ga revision     = 5.8.0
    use scalapack   = F
    input           = /home/aditisingh4812/nw_chem/nwchem-run/nwchem-run/tddft/open/open_atom/geom-MOL/ge.nw
    prefix          = ge.
    data base       = ./ge.db
    status          = startup
    nproc           =        8
    time left       =     -1s



           Memory information
           ------------------

    heap     = 2621439998 doubles =  20000.0 Mbytes
    stack    = 2621439995 doubles =  20000.0 Mbytes
    global   = 6553600000 doubles =  50000.0 Mbytes (distinct from heap & stack)
    total    = ********** doubles =  90000.0 Mbytes
    verify   = yes
    hardfail = no 


           Directory information
           ---------------------

  0 permanent = .
  0 scratch   = .




                                NWChem Input Module
                                -------------------



 Scaling coordinates for geometry "geometry" by  1.889725989
 (inverse scale =  0.529177249)



                             Geometry "geometry" -> ""
                             -------------------------

 Output coordinates in angstroms (scale by  1.889725989 to convert to a.u.)

  No.       Tag          Charge          X              Y              Z
 ---- ---------------- ---------- -------------- -------------- --------------
    1 Ge                  32.0000     0.00000000     0.00000000     0.00000000

      Atomic Mass 
      ----------- 

      Ge                73.921900


 Effective nuclear repulsion energy (a.u.)       0.0000000000

            Nuclear Dipole moment (a.u.) 
            ----------------------------
        X                 Y               Z
 ---------------- ---------------- ----------------
     0.0000000000     0.0000000000     0.0000000000


            XYZ format geometry
            -------------------
     1
 geometry
 Ge                    0.00000000     0.00000000     0.00000000



 Summary of "ao basis" -> "" (cartesian)
 ------------------------------------------------------------------------------
       Tag                 Description            Shells   Functions and Types
 ---------------- ------------------------------  ------  ---------------------
 *                        aug-cc-pVTZ                 on all atoms 


  pbe96 is a nonlocal functional; adding pw91lda local functional. 

                                 NWChem DFT Module
                                 -----------------


                      Basis "ao basis" -> "ao basis" (cartesian)
                      -----
  Ge (Germanium)
  --------------
            Exponent  Coefficients 
       -------------- ---------------------------------------------------------
  1 S  7.44796680E+06  0.000007
  1 S  1.11531820E+06  0.000057
  1 S  2.53842650E+05  0.000302
  1 S  7.19152850E+04  0.001273
  1 S  2.34701810E+04  0.004612
  1 S  8.47749180E+03  0.014821
  1 S  3.30839080E+03  0.042554
  1 S  1.37260540E+03  0.107306
  1 S  5.98220070E+02  0.224518
  1 S  2.71386020E+02  0.345313
  1 S  1.26977950E+02  0.304526
  1 S  6.02220650E+01  0.099067
  1 S  2.80185820E+01  0.004132
  1 S  1.35175220E+01  0.001035
  1 S  6.30940600E+00 -0.000486
  1 S  2.90453400E+00  0.000181
  1 S  1.28755600E+00 -0.000091
  1 S  1.67732000E-01 -0.000027

  2 S  7.44796680E+06 -0.000002
  2 S  1.11531820E+06 -0.000018
  2 S  2.53842650E+05 -0.000094
  2 S  7.19152850E+04 -0.000396
  2 S  2.34701810E+04 -0.001443
  2 S  8.47749180E+03 -0.004668
  2 S  3.30839080E+03 -0.013715
  2 S  1.37260540E+03 -0.036180
  2 S  5.98220070E+02 -0.084168
  2 S  2.71386020E+02 -0.158877
  2 S  1.26977950E+02 -0.203381
  2 S  6.02220650E+01 -0.025141
  2 S  2.80185820E+01  0.457515
  2 S  1.35175220E+01  0.557194
  2 S  6.30940600E+00  0.139706
  2 S  2.90453400E+00  0.002265
  2 S  1.28755600E+00  0.002093
  2 S  1.67732000E-01  0.000328

  3 S  7.44796680E+06  0.000001
  3 S  1.11531820E+06  0.000007
  3 S  2.53842650E+05  0.000036
  3 S  7.19152850E+04  0.000153
  3 S  2.34701810E+04  0.000556
  3 S  8.47749180E+03  0.001802
  3 S  3.30839080E+03  0.005309
  3 S  1.37260540E+03  0.014088
  3 S  5.98220070E+02  0.033201
  3 S  2.71386020E+02  0.064462
  3 S  1.26977950E+02  0.086954
  3 S  6.02220650E+01  0.011875
  3 S  2.80185820E+01 -0.272453
  3 S  1.35175220E+01 -0.500145
  3 S  6.30940600E+00  0.010855
  3 S  2.90453400E+00  0.721647
  3 S  1.28755600E+00  0.480521
  3 S  1.67732000E-01 -0.010230

  4 S  7.44796680E+06 -0.000000
  4 S  1.11531820E+06 -0.000002
  4 S  2.53842650E+05 -0.000009
  4 S  7.19152850E+04 -0.000039
  4 S  2.34701810E+04 -0.000143
  4 S  8.47749180E+03 -0.000462
  4 S  3.30839080E+03 -0.001361
  4 S  1.37260540E+03 -0.003618
  4 S  5.98220070E+02 -0.008536
  4 S  2.71386020E+02 -0.016651
  4 S  1.26977950E+02 -0.022591
  4 S  6.02220650E+01 -0.003215
  4 S  2.80185820E+01  0.074500
  4 S  1.35175220E+01  0.144033
  4 S  6.30940600E+00 -0.008082
  4 S  2.90453400E+00 -0.270416
  4 S  1.28755600E+00 -0.340161
  4 S  1.67732000E-01  0.619066

  5 S  3.36552000E-01  1.000000

  6 S  7.10690000E-02  1.000000

  7 S  2.73700000E-02  1.000000

  8 P  6.97959820E+03  0.000457
  8 P  1.65416480E+03  0.003956
  8 P  5.36028650E+02  0.021314
  8 P  2.03537130E+02  0.081872
  8 P  8.52375300E+01  0.222373
  8 P  3.78419620E+01  0.390566
  8 P  1.74065120E+01  0.356042
  8 P  7.88149200E+00  0.107031
  8 P  3.53321300E+00  0.003694
  8 P  1.52147300E+00  0.001922
  8 P  1.99093000E-01  0.000192

  9 P  6.97959820E+03 -0.000176
  9 P  1.65416480E+03 -0.001531
  9 P  5.36028650E+02 -0.008315
  9 P  2.03537130E+02 -0.032872
  9 P  8.52375300E+01 -0.093166
  9 P  3.78419620E+01 -0.175554
  9 P  1.74065120E+01 -0.146791
  9 P  7.88149200E+00  0.186293
  9 P  3.53321300E+00  0.526486
  9 P  1.52147300E+00  0.397086
  9 P  1.99093000E-01 -0.003348

 10 P  6.97959820E+03  0.000035
 10 P  1.65416480E+03  0.000301
 10 P  5.36028650E+02  0.001649
 10 P  2.03537130E+02  0.006498
 10 P  8.52375300E+01  0.018638
 10 P  3.78419620E+01  0.035061
 10 P  1.74065120E+01  0.029589
 10 P  7.88149200E+00 -0.047246
 10 P  3.53321300E+00 -0.124985
 10 P  1.52147300E+00 -0.121080
 10 P  1.99093000E-01  0.575473

 11 P  5.62704000E-01  1.000000

 12 P  6.70310000E-02  1.000000

 13 P  2.13680000E-02  1.000000

 14 D  2.82239110E+02  0.001828
 14 D  8.45499570E+01  0.015155
 14 D  3.20736560E+01  0.066046
 14 D  1.34974950E+01  0.183947
 14 D  5.95855000E+00  0.322787
 14 D  2.61078800E+00  0.372946
 14 D  1.10398700E+00  0.275173

 15 D  4.24049000E-01  1.000000

 16 D  1.52000000E-01  1.000000

 17 D  5.28000000E-02  1.000000

 18 F  3.45800000E-01  1.000000

 19 F  1.32300000E-01  1.000000



 Summary of "ao basis" -> "ao basis" (cartesian)
 ------------------------------------------------------------------------------
       Tag                 Description            Shells   Functions and Types
 ---------------- ------------------------------  ------  ---------------------
 Ge                       aug-cc-pVTZ               19       69   7s6p4d2f




 Summary of "ao basis" -> "ao basis" (cartesian)
 ------------------------------------------------------------------------------
       Tag                 Description            Shells   Functions and Types
 ---------------- ------------------------------  ------  ---------------------
 Ge                       aug-cc-pVTZ               19       69   7s6p4d2f




                         Geometry "geometry" -> "geometry"
                         ---------------------------------

 Output coordinates in angstroms (scale by  1.889725989 to convert to a.u.)

  No.       Tag          Charge          X              Y              Z
 ---- ---------------- ---------- -------------- -------------- --------------
    1 Ge                  32.0000     0.00000000     0.00000000     0.00000000

      Atomic Mass 
      ----------- 

      Ge                73.921900


 Effective nuclear repulsion energy (a.u.)       0.0000000000

            Nuclear Dipole moment (a.u.) 
            ----------------------------
        X                 Y               Z
 ---------------- ---------------- ----------------
     0.0000000000     0.0000000000     0.0000000000


                      Basis "ao basis" -> "ao basis" (cartesian)
                      -----
  Ge (Germanium)
  --------------
            Exponent  Coefficients 
       -------------- ---------------------------------------------------------
  1 S  7.44796680E+06  0.751918
  1 S  1.11531820E+06  1.404014
  1 S  2.53842650E+05  2.433308
  1 S  7.19152850E+04  3.985264
  1 S  2.34701810E+04  6.233262
  1 S  8.47749180E+03  9.332549
  1 S  3.30839080E+03 13.229987
  1 S  1.37260540E+03 17.246134
  1 S  5.98220070E+02 19.355617
  1 S  2.71386020E+02 16.455616
  1 S  1.26977950E+02  8.209775
  1 S  6.02220650E+01  1.526357
  1 S  2.80185820E+01  0.035861
  1 S  1.35175220E+01  0.005199
  1 S  6.30940600E+00 -0.001378
  1 S  2.90453400E+00  0.000286
  1 S  1.28755600E+00 -0.000079
  1 S  1.67732000E-01 -0.000005

  2 S  7.44796680E+06 -0.233684
  2 S  1.11531820E+06 -0.437799
  2 S  2.53842650E+05 -0.757572
  2 S  7.19152850E+04 -1.240572
  2 S  2.34701810E+04 -1.949286
  2 S  8.47749180E+03 -2.938714
  2 S  3.30839080E+03 -4.263736
  2 S  1.37260540E+03 -5.814289
  2 S  5.98220070E+02 -7.255454
  2 S  2.71386020E+02 -7.570476
  2 S  1.26977950E+02 -5.482497
  2 S  6.02220650E+01 -0.387322
  2 S  2.80185820E+01  3.970658
  2 S  1.35175220E+01  2.799314
  2 S  6.30940600E+00  0.396349
  2 S  2.90453400E+00  0.003590
  2 S  1.28755600E+00  0.001803
  2 S  1.67732000E-01  0.000061

  3 S  7.44796680E+06  0.093050
  3 S  1.11531820E+06  0.171729
  3 S  2.53842650E+05  0.296878
  3 S  7.19152850E+04  0.486615
  3 S  2.34701810E+04  0.764967
  3 S  8.47749180E+03  1.154393
  3 S  3.30839080E+03  1.679310
  3 S  1.37260540E+03  2.303806
  3 S  5.98220070E+02  2.912375
  3 S  2.71386020E+02  3.125658
  3 S  1.26977950E+02  2.385241
  3 S  6.02220650E+01  0.186157
  3 S  2.80185820E+01 -2.406153
  3 S  1.35175220E+01 -2.556910
  3 S  6.30940600E+00  0.031339
  3 S  2.90453400E+00  1.164337
  3 S  1.28755600E+00  0.421195
  3 S  1.67732000E-01 -0.001944

  4 S  7.44796680E+06 -0.033697
  4 S  1.11531820E+06 -0.073005
  4 S  2.53842650E+05 -0.124290
  4 S  7.19152850E+04 -0.203437
  4 S  2.34701810E+04 -0.319547
  4 S  8.47749180E+03 -0.482464
  4 S  3.30839080E+03 -0.701821
  4 S  1.37260540E+03 -0.964042
  4 S  5.98220070E+02 -1.220178
  4 S  2.71386020E+02 -1.315675
  4 S  1.26977950E+02 -1.009861
  4 S  6.02220650E+01 -0.082127
  4 S  2.80185820E+01  1.072180
  4 S  1.35175220E+01  1.199952
  4 S  6.30940600E+00 -0.038020
  4 S  2.90453400E+00 -0.710998
  4 S  1.28755600E+00 -0.485889
  4 S  1.67732000E-01  0.191746

  5 S  3.36552000E-01  0.314919

  6 S  7.10690000E-02  0.098100

  7 S  2.73700000E-02  0.047959

  8 P  6.97959820E+03 41.546851
  8 P  1.65416480E+03 59.488173
  8 P  5.36028650E+02 78.358300
  8 P  2.03537130E+02 89.715242
  8 P  8.52375300E+01 82.091831
  8 P  3.78419620E+01 52.250482
  8 P  1.74065120E+01 18.043436
  8 P  7.88149200E+00  2.014651
  8 P  3.53321300E+00  0.025506
  8 P  1.52147300E+00  0.004629
  8 P  1.99093000E-01  0.000036

  9 P  6.97959820E+03-16.491023
  9 P  1.65416480E+03-23.767958
  9 P  5.36028650E+02-31.568664
  9 P  2.03537130E+02-37.201728
  9 P  8.52375300E+01-35.520703
  9 P  3.78419620E+01-24.255674
  9 P  1.74065120E+01 -7.682893
  9 P  7.88149200E+00  3.621538
  9 P  3.53321300E+00  3.754346
  9 P  1.52147300E+00  0.987756
  9 P  1.99093000E-01 -0.000655

 10 P  6.97959820E+03  5.512996
 10 P  1.65416480E+03  7.895636
 10 P  5.36028650E+02 10.559590
 10 P  2.03537130E+02 12.405608
 10 P  8.52375300E+01 11.987132
 10 P  3.78419620E+01  8.171758
 10 P  1.74065120E+01  2.612422
 10 P  7.88149200E+00 -1.549331
 10 P  3.53321300E+00 -1.503452
 10 P  1.52147300E+00 -0.508070
 10 P  1.99093000E-01  0.190049

 11 P  5.62704000E-01  0.694688

 12 P  6.70310000E-02  0.048617

 13 P  2.13680000E-02  0.011645

 14 D  2.82239110E+02 60.459723
 14 D  8.45499570E+01 60.816122
 14 D  3.20736560E+01 48.599860
 14 D  1.34974950E+01 29.762160
 14 D  5.95855000E+00 12.486508
 14 D  2.61078800E+00  3.404277
 14 D  1.10398700E+00  0.556957

 15 D  4.24049000E-01  0.366765

 16 D  1.52000000E-01  0.060903

 17 D  5.28000000E-02  0.009572

 18 F  3.45800000E-01  0.134993

 19 F  1.32300000E-01  0.015540



    Basis function labels
    ---------------------
       No.  Atm El Type
       ---  --- -- ----
        1    1 Ge s          
        2    1 Ge s          
        3    1 Ge s          
        4    1 Ge s          
        5    1 Ge s          
        6    1 Ge s          
        7    1 Ge s          
        8    1 Ge px         
        9    1 Ge py         
       10    1 Ge pz         
       11    1 Ge px         
       12    1 Ge py         
       13    1 Ge pz         
       14    1 Ge px         
       15    1 Ge py         
       16    1 Ge pz         
       17    1 Ge px         
       18    1 Ge py         
       19    1 Ge pz         
       20    1 Ge px         
       21    1 Ge py         
       22    1 Ge pz         
       23    1 Ge px         
       24    1 Ge py         
       25    1 Ge pz         
       26    1 Ge dxx        
       27    1 Ge dxy        
       28    1 Ge dxz        
       29    1 Ge dyy        
       30    1 Ge dyz        
       31    1 Ge dzz        
       32    1 Ge dxx        
       33    1 Ge dxy        
       34    1 Ge dxz        
       35    1 Ge dyy        
       36    1 Ge dyz        
       37    1 Ge dzz        
       38    1 Ge dxx        
       39    1 Ge dxy        
       40    1 Ge dxz        
       41    1 Ge dyy        
       42    1 Ge dyz        
       43    1 Ge dzz        
       44    1 Ge dxx        
       45    1 Ge dxy        
       46    1 Ge dxz        
       47    1 Ge dyy        
       48    1 Ge dyz        
       49    1 Ge dzz        
       50    1 Ge fxxx       
       51    1 Ge fxxy       
       52    1 Ge fxxz       
       53    1 Ge fxyy       
       54    1 Ge fxyz       
       55    1 Ge fxzz       
       56    1 Ge fyyy       
       57    1 Ge fyyz       
       58    1 Ge fyzz       
       59    1 Ge fzzz       
       60    1 Ge fxxx       
       61    1 Ge fxxy       
       62    1 Ge fxxz       
       63    1 Ge fxyy       
       64    1 Ge fxyz       
       65    1 Ge fxzz       
       66    1 Ge fyyy       
       67    1 Ge fyyz       
       68    1 Ge fyzz       
       69    1 Ge fzzz       
  int_init: cando_txs set to always be  F

 Schwarz integral screening summary 
 ---------------------------------- 

        No. of atom pairs =       1
       No. of shell pairs =     190

 Atomic screening 

   value      no.     value      no.     value      no.     value      no.   
  -------- ------    -------- ------    -------- ------    -------- ------   
  0.00D+00      0    1.00D-13      0    1.00D-12      0    1.00D-11      0
  1.00D-10      0    1.00D-09      0    1.00D-08      0    1.00D-07      0
  1.00D-06      0    1.00D-05      0    1.00D-04      0    1.00D-03      0
  1.00D-02      0    1.00D-01      0    1.00D+00      0    1.00D+01      1


 Shell screening 

   value      no.     value      no.     value      no.     value      no.   
  -------- ------    -------- ------    -------- ------    -------- ------   
  0.00D+00      0    1.00D-13      0    1.00D-12      0    1.00D-11      0
  1.00D-10      0    1.00D-09      0    1.00D-08      0    1.00D-07      0
  1.00D-06      0    1.00D-05      3    1.00D-04      3    1.00D-03      9
  1.00D-02     19    1.00D-01     72    1.00D+00     82    1.00D+01      2


  Caching 1-el integrals 
  atom                     1  - neighbor  & S                     1   10.000000000000000       exp AB    2.1368000000000015E-002   2.1368000000000015E-002
 zmins =     0.021368000    0.021368000 lprod =   2 range =        22.55 acc   0.10D-06
 sh     0.000000000
  Center:                     1  Radial Pts. & Wghts. 
    1        0.000002123           2.8716550E-17
    2        0.000016986           7.3514734E-15
    3        0.000057328           1.8841278E-13
    4        0.000135890           1.8820524E-12
    5        0.000265414           1.1218395E-11
    6        0.000458642           4.8240176E-11
    7        0.000728323           1.6558560E-10
    8        0.001087209           4.8195945E-10
    9        0.001548059           1.2367956E-09
   10        0.002123641           2.8737028E-09
   11        0.002826733           6.1614926E-09
   12        0.003670128           1.2362819E-08
   13        0.004666635           2.3461715E-08
   14        0.005829084           4.2462627E-08
   15        0.007170326           7.3774853E-08
   16        0.008703241           1.2369776E-07
   17        0.010440738           2.0102351E-07
   18        0.012395762           3.1777577E-07
   19        0.014581300           4.9010421E-07
   20        0.017010379           7.3935667E-07
   21        0.019696081           1.0933525E-06
   22        0.022651541           1.5878829E-06
   23        0.025889954           2.2684653E-06
   24        0.029424585           3.1923832E-06
   25        0.033268773           4.4310423E-06
   26        0.037435934           6.0726806E-06
   27        0.041939577           8.2254683E-06
   28        0.046793304           1.1021042E-05
   29        0.052010820           1.4618515E-05
   30        0.057605942           1.9209020E-05
   31        0.063592609           2.5020825E-05
   32        0.069984888           3.2325100E-05
   33        0.076796986           4.1442377E-05
   34        0.084043258           5.2749792E-05
   35        0.091738219           6.6689173E-05
   36        0.099896557           8.3776065E-05
   37        0.108533138           1.0460978E-04
   38        0.117663025           1.2988455E-04
   39        0.127301488           1.6040198E-04
   40        0.137464013           1.9708479E-04
   41        0.148166325           2.4099205E-04
   42        0.159424393           2.9333614E-04
   43        0.171254451           3.5550139E-04
   44        0.183673012           4.2906476E-04
   45        0.196696885           5.1581871E-04
   46        0.210343192           6.1779645E-04
   47        0.224629387           7.3729977E-04
   48        0.239573274           8.7692984E-04
   49        0.255193030           1.0396212E-03
   50        0.271507223           1.2286793E-03
   51        0.288534835           1.4478216E-03
   52        0.306295291           1.7012237E-03
   53        0.324808474           1.9935695E-03
   54        0.344094759           2.3301069E-03
   55        0.364175040           2.7167090E-03
   56        0.385070754           3.1599427E-03
   57        0.406803919           3.6671429E-03
   58        0.429397159           4.2464962E-03
   59        0.452873745           4.9071319E-03
   60        0.477257629           5.6592241E-03
   61        0.502573481           6.5141034E-03
   62        0.528846732           7.4843818E-03
   63        0.556103618           8.5840904E-03
   64        0.584371226           9.8288323E-03
   65        0.613677541           1.1235952E-02
   66        0.644051501           1.2824725E-02
   67        0.675523052           1.4616565E-02
   68        0.708123207           1.6635259E-02
   69        0.741884110           1.8907226E-02
   70        0.776839105           2.1461806E-02
   71        0.813022805           2.4331584E-02
   72        0.850471175           2.7552747E-02
   73        0.889221610           3.1165488E-02
   74        0.929313028           3.5214458E-02
   75        0.970785963           3.9749270E-02
   76        1.013682673           4.4825063E-02
   77        1.058047244           5.0503139E-02
   78        1.103925717           5.6851680E-02
   79        1.151366213           6.3946548E-02
   80        1.200419071           7.1872197E-02
   81        1.251137006           8.0722697E-02
   82        1.303575265           9.0602889E-02
   83        1.357791809           1.0162970E-01
   84        1.413847504           1.1393365E-01
   85        1.471806332           1.2766050E-01
   86        1.531735619           1.4297322E-01
   87        1.593706284           1.6005419E-01
   88        1.657793114           1.7910766E-01
   89        1.724075060           2.0036269E-01
   90        1.792635565           2.2407642E-01
   91        1.863562926           2.5053786E-01
   92        1.936950686           2.8007225E-01
   93        2.012898076           3.1304616E-01
   94        2.091510493           3.4987329E-01
   95        2.172900038           3.9102128E-01
   96        2.257186108           4.3701964E-01
   97        2.344496054           4.8846891E-01
   98        2.434965918           5.4605155E-01
   99        2.528741257           6.1054454E-01
  100        2.625978061           6.8283439E-01
  101        2.726843787           7.6393478E-01
  102        2.831518527           8.5500750E-01
  103        2.940196324           9.5738741E-01
  104        3.053086663           1.0726123E+00
  105        3.170416168           1.2024585E+00
  106        3.292430537           1.3489842E+00
  107        3.419396761           1.5145817E+00
  108        3.551605668           1.7020409E+00
  109        3.689374860           1.9146266E+00
  110        3.833052124           2.1561748E+00
  111        3.983019390           2.4312103E+00
  112        4.139697368           2.7450939E+00
  113        4.303551001           3.1042064E+00
  114        4.475095902           3.5161810E+00
  115        4.654906008           3.9901980E+00
  116        4.843622747           4.5373631E+00
  117        5.041966060           5.1711949E+00
  118        5.250747779           5.9082620E+00
  119        5.470887983           6.7690206E+00
  120        5.703435157           7.7789312E+00
  121        5.949591272           8.9699613E+00
  122        6.210743303           1.0382638E+01
  123        6.488503285           1.2068891E+01
  124        6.784759817           1.4096043E+01
  125        7.101745205           1.6552530E+01
  126        7.442124307           1.9556241E+01
  127        7.809114066           2.3266946E+01
  128        8.206647429           2.7905288E+01
  129        8.639603005           3.3782614E+01
  130        9.114134889           4.1349360E+01
  131        9.638160134           5.1276494E+01
  132       10.222103941           6.4598768E+01
  133       10.880085591           8.2980165E+01
  134       11.631900471           1.0923822E+02
  135       12.506540308           1.4846531E+02
  136       13.548952025           2.1068490E+02
  137       14.834434784           3.1807130E+02
  138       16.504148743           5.2883346E+02
  139       18.875003815           1.0451320E+03
  140       22.958234388           3.1148667E+03
     irreducible set of Lebedev Angular points ;
  0.009523809523810  1.000000000000000  0.000000000000000  0.000000000000000
  0.032142857142857  0.577350269189626  0.577350269189626  0.577350269189626
  0.028571428571429  0.459700843380983  0.000000000000000  0.888073833977115
   total no. of   reducible points:  38; test:  1.00000000
  0.012698412698413  1.000000000000000  0.000000000000000  0.000000000000000
  0.022574955908289  0.707106781186547  0.707106781186547  0.000000000000000
  0.021093750000000  0.577350269189626  0.577350269189626  0.577350269189626
  0.020173335537919  0.301511344577764  0.301511344577764  0.904534033733291
   total no. of   reducible points:  50; test:  1.00000000
  0.000513067179734  1.000000000000000  0.000000000000000  0.000000000000000
  0.016604069565742  0.707106781186547  0.707106781186547  0.000000000000000
 -0.029586038961039  0.577350269189626  0.577350269189626  0.577350269189626
  0.026576207082159  0.480384461415261  0.480384461415261  0.733799385705343
  0.016522170993716  0.320772648980776  0.000000000000000  0.947156221362588
   total no. of   reducible points:  74; test:  1.00000000
  0.011544011544012  1.000000000000000  0.000000000000000  0.000000000000000
  0.011943909085856  0.577350269189626  0.577350269189626  0.577350269189626
  0.011110555710603  0.369602846454150  0.369602846454150  0.852518311701268
  0.011876501294537  0.694354006602666  0.694354006602666  0.189063552885395
  0.011812303746904  0.374243039090341  0.000000000000000  0.927330657151172
   total no. of   reducible points:  86; test:  1.00000000
  0.003828270494937  1.000000000000000  0.000000000000000  0.000000000000000
  0.009793737512488  0.577350269189626  0.577350269189626  0.577350269189626
  0.008211737283191  0.185115635344736  0.185115635344736  0.965124035086594
  0.009942814891178  0.690421048382292  0.690421048382292  0.215957291845848
  0.009595471336071  0.395689473055942  0.395689473055942  0.828769981252592
  0.009694996361663  0.478369028812150  0.000000000000000  0.878158910604066
   total no. of   reducible points: 110; test:  1.00000000
  0.000599631368862  1.000000000000000  0.000000000000000  0.000000000000000
  0.007372999718621  0.707106781186547  0.707106781186547  0.000000000000000
  0.007210515360144  0.577350269189626  0.577350269189626  0.577350269189626
  0.007116355493118  0.676441040011426  0.676441040011426  0.291298882209527
  0.006753829486314  0.417496122796545  0.417496122796545  0.807089818359583
  0.007574394159054  0.157467667203908  0.157467667203908  0.974888643677173
  0.006991087353303  0.140355381171318  0.449332832326956  0.882270011260323
   total no. of   reducible points: 146; test:  1.00000000
  0.005544842902037  1.000000000000000  0.000000000000000  0.000000000000000
  0.006071332770671  0.707106781186547  0.707106781186547  0.000000000000000
  0.006383674773515  0.577350269189626  0.577350269189626  0.577350269189626
  0.005183387587748  0.255125262111413  0.255125262111413  0.932642590312691
  0.006317929009814  0.674360146036277  0.674360146036277  0.300793595137701
  0.006201670006589  0.431891069671941  0.431891069671941  0.791795559393492
  0.005477143385137  0.261393136033599  0.000000000000000  0.965232421976448
  0.005968383987681  0.499045316179604  0.144663074432512  0.854415804684659
   total no. of   reducible points: 170; test:  1.00000000
  0.001782340447245  1.000000000000000  0.000000000000000  0.000000000000000
  0.005716905949977  0.707106781186547  0.707106781186547  0.000000000000000
  0.005573383178849  0.577350269189626  0.577350269189626  0.577350269189626
  0.005608704082588  0.671297344269523  0.671297344269523  0.314196994182586
  0.005158237711805  0.289246562757544  0.289246562757544  0.912509096867474
  0.005518771467274  0.444693317871744  0.444693317871744  0.777493219314767
  0.004106777028169  0.129933544765007  0.129933544765007  0.982972302707253
  0.005051846064615  0.345770219761128  0.000000000000000  0.938319218137592
  0.005530248916233  0.159041710538353  0.836036015482459  0.525118572443642
   total no. of   reducible points: 194; test:  1.00000000
 -0.055226399197273  1.000000000000000  0.000000000000000  0.000000000000000
  0.004450274607445  0.577350269189626  0.577350269189626  0.577350269189626
  0.004496841067921  0.449204468739761  0.449204468739761  0.772289253148364
  0.005049153450479  0.252041949021020  0.252041949021020  0.934317778845812
  0.003976408018052  0.698190665844724  0.698190665844724  0.158302205463478
  0.004401400650381  0.658740524346096  0.658740524346096  0.363485684956727
  0.017245443505444  0.040385440500977  0.040385440500977  0.998367683967727
  0.004231083095357  0.582384230971558  0.000000000000000  0.812913653173365
  0.005198069864064  0.354587739051869  0.000000000000000  0.935022745880593
  0.004695720972569  0.227218180899819  0.486466153588665  0.843636521068894
   total no. of   reducible points: 230; test:  1.00000000
 -0.001313769127327  1.000000000000000  0.000000000000000  0.000000000000000
 -0.002522728704859  0.707106781186547  0.707106781186547  0.000000000000000
  0.004186853881701  0.577350269189626  0.577350269189626  0.577350269189626
  0.005315167977811  0.703937339158548  0.703937339158548  0.094575076403713
  0.004047142377086  0.101252624857241  0.101252624857241  0.989694807462905
  0.004112482394407  0.464744872642054  0.464744872642054  0.753673939250816
  0.003595584899759  0.327742065497163  0.327742065497163  0.886098344997499
  0.004256131351428  0.662033866369997  0.662033866369997  0.351315128564633
  0.004229582700647  0.850650808352040  0.000000000000000  0.525731112119134
  0.004080914225781  0.323348454269290  0.115311201100970  0.939227929749916
  0.004071467593831  0.231479015871260  0.524493924092236  0.819343388819120
   total no. of   reducible points: 266; test:  1.00000000
  0.000854591172513  1.000000000000000  0.000000000000000  0.000000000000000
  0.003599119285026  0.577350269189626  0.577350269189626  0.577350269189626
  0.003449788424306  0.351564034557011  0.351564034557011  0.867643624544083
  0.003604822601420  0.656632941021961  0.656632941021961  0.371034178384821
  0.003576729661743  0.472905413258100  0.472905413258100  0.743452042987556
  0.002352101413689  0.096183085226148  0.096183085226148  0.990705621379408
  0.003108953122414  0.221964523629418  0.221964523629418  0.949454317226443
  0.003650045807677  0.701176641608955  0.701176641608955  0.129238672710514
  0.002982344963172  0.264415288706066  0.000000000000000  0.964408914879206
  0.003600820932216  0.571895589187896  0.000000000000000  0.820326419827759
  0.003571540554273  0.251003475177047  0.800072749407395  0.544867737258077
  0.003392312205006  0.123354853258333  0.412772408316853  0.902442529533000
   total no. of   reducible points: 302; test:  1.00000000
  0.003006796749454  1.000000000000000  0.000000000000000  0.000000000000000
  0.003050627745651  0.577350269189626  0.577350269189626  0.577350269189626
  0.001621104600289  0.706896546391232  0.706896546391232  0.024383301669356
  0.003005701484902  0.479468262571203  0.479468262571203  0.734996850587746
  0.002990992529654  0.192753315487802  0.192753315487802  0.962129055136014
  0.002982170644108  0.693035796132712  0.693035796132712  0.198501311223365
  0.002721564237311  0.360830211552009  0.360830211552009  0.860001812127547
  0.003033513795811  0.649848616149617  0.649848616149617  0.394199888605839
  0.003007949555219  0.193294501323034  0.000000000000000  0.981140782843257
  0.002881964603055  0.380049491989930  0.000000000000000  0.924966152698679
  0.002958357626536  0.289955882549957  0.793453785658232  0.535123047718276
  0.003036020026407  0.096841214551040  0.828080150668686  0.552182074349399
  0.002832187403926  0.183343464704166  0.907465826530513  0.378009189874487
   total no. of   reducible points: 350; test:  1.00000000
  0.000526589796822  1.000000000000000  0.000000000000000  0.000000000000000
  0.002548219972003  0.707106781186547  0.707106781186547  0.000000000000000
  0.002512317418927  0.577350269189626  0.577350269189626  0.577350269189626
  0.002530403801186  0.690934630750911  0.690934630750911  0.212646824707552
  0.002014279020919  0.177483605460916  0.177483605460916  0.967987158791473
  0.002501725168403  0.491434263778475  0.491434263778475  0.719016501040843
  0.002513267174598  0.645666470742426  0.645666470742426  0.407712664897770
  0.002302694782227  0.286128901030764  0.286128901030764  0.914472801120872
  0.001462495621595  0.075680843671780  0.075680843671780  0.994255912631278
  0.002445373437313  0.392725976336800  0.392725976336800  0.831584400419232
  0.002417442375639  0.881813287779429  0.000000000000000  0.471598691151316
  0.001910951282180  0.977642811118265  0.000000000000000  0.210272522857307
  0.002416930044325  0.205482369640304  0.868946032287241  0.450233038258263
  0.002512236854563  0.590515704892527  0.799927854385729  0.106801826075805
  0.002496644054553  0.555015236107681  0.771746262691590  0.310428403516654
  0.002236607760438  0.937180985855372  0.334436314534346  0.099217696364292
   total no. of   reducible points: 434; test:  1.00000000
  0.000309512129531  1.000000000000000  0.000000000000000  0.000000000000000
  0.001852379698597  0.577350269189626  0.577350269189626  0.577350269189626
  0.001871790639278  0.704095493822747  0.704095493822747  0.092190407076898
  0.001858812585438  0.680774406645524  0.680774406645524  0.270356088359165
  0.001852028828296  0.637254693925875  0.637254693925875  0.433373868777154
  0.001846715956151  0.504441970780036  0.504441970780036  0.700768575373573
  0.001818471778163  0.421576178401097  0.421576178401097  0.802836877335274
  0.001749564657281  0.331792073647212  0.331792073647212  0.883078727934133
  0.001617210647254  0.238473670142189  0.238473670142189  0.941414158220403
  0.001384737234852  0.145903644915776  0.145903644915776  0.978480583762694
  0.000976433116505  0.060950341155072  0.060950341155072  0.996278129754016
  0.001857161196774  0.611684344200988  0.000000000000000  0.791101929626902
  0.001705153996396  0.396475534819986  0.000000000000000  0.918045287711454
  0.001300321685886  0.172478200990772  0.000000000000000  0.985013335028002
  0.001842866472905  0.561026380862206  0.351828092773352  0.749310611904116
  0.001802658934377  0.474239284255198  0.263471665593795  0.840047488359050
  0.001849830560444  0.598412649788538  0.181664084036021  0.780320742479920
  0.001713904507107  0.379103540769556  0.172079522565688  0.909213475092374
  0.001555213603397  0.277867319058624  0.082130215819325  0.957102074310073
  0.001802239128009  0.503356427107512  0.089992058420749  0.859379855890721
   total no. of   reducible points: 590; test:  1.00000000
  0.000219294208818  1.000000000000000  0.000000000000000  0.000000000000000
  0.001436433617319  0.707106781186547  0.707106781186547  0.000000000000000
  0.001421940344336  0.577350269189626  0.577350269189626  0.577350269189626
  0.000679812351105  0.050872044105024  0.050872044105024  0.997408677652823
  0.000991318423529  0.122819879017883  0.122819879017883  0.984799753572301
  0.001180207833239  0.202689081440879  0.202689081440879  0.958036675983391
  0.001296599602081  0.284774515646429  0.284774515646429  0.915317950483155
  0.001365871427428  0.365671907897803  0.365671907897803  0.855901928697887
  0.001402988604775  0.442826488671347  0.442826488671347  0.779621319527635
  0.001418645563596  0.514061962724974  0.514061962724974  0.686644447264154
  0.001421376741852  0.630640121916680  0.630640121916680  0.452311920313658
  0.001423996475491  0.671688333202261  0.671688333202261  0.312521305001653
  0.001431554042179  0.697979268533688  0.697979268533688  0.160155803498829
  0.000925440149987  0.144686567419531  0.000000000000000  0.989477537495599
  0.001250239995054  0.339026347541122  0.000000000000000  0.940776878793759
  0.001394365843329  0.533580465126351  0.000000000000000  0.845749305193653
  0.001127089094672  0.069440243933494  0.235518789424233  0.969385863498432
  0.001345753760911  0.226900410952946  0.410218247404573  0.883310360522113
  0.001424957283317  0.080255746077753  0.621430241748161  0.779348105702661
  0.001261523341238  0.146799952789657  0.324528434571739  0.934414827052402
  0.001392547106053  0.157150776982473  0.522448218969663  0.838064133458312
  0.001418761677878  0.236570299315725  0.601754663408956  0.762840624604670
  0.001338366684480  0.077148158667657  0.434657551614116  0.897285336132833
  0.001393700862676  0.306293666621073  0.490882658903762  0.815609223203975
  0.001415914757467  0.382247737952479  0.564876814909950  0.731300793659766
   total no. of   reducible points: 770; test:  1.00000000
  0.000143829419053  1.000000000000000  0.000000000000000  0.000000000000000
  0.001125772288287  0.577350269189626  0.577350269189626  0.577350269189626
  0.000494802934195  0.042929635453413  0.042929635453413  0.998155345023847
  0.000735799010913  0.105142685408640  0.105142685408640  0.988883224354686
  0.000888913277130  0.175002486762309  0.175002486762309  0.968890220434707
  0.000988834783892  0.247765337965026  0.247765337965026  0.936602730407163
  0.001053299681709  0.320656712395596  0.320656712395596  0.891267942647606
  0.001092778807015  0.391652074984998  0.391652074984998  0.832596723702352
  0.001114389394063  0.459082587418762  0.459082587418762  0.760582905315251
  0.001123724788052  0.521456388841586  0.521456388841586  0.675400969108414
  0.001125239325244  0.625317024465420  0.625317024465420  0.466858905695743
  0.001126153271816  0.663792674452317  0.663792674452317  0.344613654237438
  0.001130286931124  0.691041039849830  0.691041039849830  0.211954151850184
  0.001134986534364  0.705290700745776  0.705290700745776  0.071624401449956
  0.000682336792711  0.123668676265799  0.000000000000000  0.992323565431490
  0.000945415816045  0.294077711446839  0.000000000000000  0.955781512496548
  0.001074429975386  0.469775384920765  0.000000000000000  0.882785980701182
  0.001129300086569  0.633456324113957  0.000000000000000  0.773778447257375
  0.000843688450090  0.059740486141813  0.202912875277752  0.977372722845310
  0.001075255720449  0.137576040847364  0.460262194248405  0.877058461865803
  0.001108577236864  0.339101652633629  0.503067399966204  0.794942299964208
  0.000956647532378  0.127167519143982  0.281760642244213  0.951020169374390
  0.001080663250717  0.269312074041351  0.433156129172016  0.860143461601762
  0.001126797131196  0.141978645260192  0.625616735858081  0.767102186220558
  0.001022568715358  0.067092846007383  0.379839521685916  0.922616110730809
  0.001108960267713  0.070577381832562  0.551750542142352  0.831017552413474
  0.001122790653436  0.278388847788215  0.602961915615919  0.747620610834086
  0.001032401847117  0.197957893891741  0.358960632958910  0.912118378409121
  0.001107249382284  0.208730706110327  0.534866643813548  0.818748536281022
  0.001121780048520  0.405512213787284  0.567499754607437  0.716591845467024
   total no. of   reducible points: 974; test:  1.00000000
  qrot: 

              1        2        3      
    1    1.0000   0.0000   0.0000
    2    0.0000   1.0000   0.0000
    3    0.0000   0.0000   1.0000
  me                     0   done genpts
  me                     1   done genpts
  me                     3   done genpts
  me                     6   done genpts
  me                     2   done genpts
  me                     4   done genpts
  me                     5   done genpts
  me                     7   done genpts
  me                     0   done uprt
  me                     1   done uprt
  me                     2   done uprt
  me                     3   done uprt
  me                     4   done uprt
  me                     5   done uprt
  me                     6   done uprt
  me                     7   done uprt
  me                     0  done mem
  me                     1  done mem
  me                     2  done mem
  me                     3  done mem
  me                     4  done mem
  me                     5  done mem
  me                     6  done mem
  me                     7  done mem
  dftinpanae: itol2e                     8  iaoacc                    14  tol_rho    1.0000000000000000E-010

            General Information
            -------------------
          SCF calculation type: DFT
          Wavefunction type:  spin polarized.
          No. of atoms     :     1
          No. of electrons :    32
           Alpha electrons :    17
            Beta electrons :    15
          Charge           :     0
          Spin multiplicity:     3
          Use of symmetry is: off; symmetry adaption is: off
          Maximum number of iterations:  50
          AO basis - number of functions:    69
                     number of shells:    19
          Convergence on energy requested:  1.00D-06
          Convergence on density requested:  1.00D-05
          Convergence on gradient requested:  5.00D-04

              XC Information
              --------------
                     Hartree-Fock (Exact) Exchange  1.000          
                     LC-wPBE(h)Exchange Functional  1.000          
            Perdew 1991 LDA Correlation Functional  1.000 local    
           PerdewBurkeErnz. Correlation Functional  1.000 non-local

           Range-Separation Parameters        
           ---------------------------
           Alpha           :  0.00
           Beta            :  1.00
           Gamma           :  0.24
           Short-Range HF  :     F

             Grid Information
             ----------------
          Grid used for XC integration:  fine      
          Radial quadrature: Mura-Knowles        
          Angular quadrature: Lebedev. 
          Tag              B.-S. Rad. Rad. Pts. Rad. Cut. Ang. Pts.
          ---              ---------- --------- --------- ---------
          Ge                  1.25      140          12.0       974
          Grid pruning is: on 
          Number of quadrature shells:   140
          Spatial weights used:  Erf1

          Convergence Information
          -----------------------
          Convergence aids based upon iterative change in 
          total energy or number of iterations. 
          Levelshifting, if invoked, occurs when the 
          HOMO/LUMO gap drops below (HL_TOL):  1.00D-02
          DIIS, if invoked, will attempt to extrapolate 
          using up to (NFOCK): 10 stored Fock matrices.

                    Damping( 0%)  Levelshifting(0.5)       DIIS
                  --------------- ------------------- ---------------
          dE  on:    start            ASAP                start   
          dE off:    2 iters         50 iters            50 iters 


      Screening Tolerance Information
      -------------------------------
          Density screening/tol_rho:  1.00D-10
          AO Gaussian exp screening on grid/accAOfunc:  14
          CD Gaussian exp screening on grid/accCDfunc:  20
          XC Gaussian exp screening on grid/accXCfunc:  20
          Schwarz screening/accCoul:  1.00D-08



                         Geometry "geometry" -> "geometry"
                         ---------------------------------

 Output coordinates in angstroms (scale by  1.889725989 to convert to a.u.)

  No.       Tag          Charge          X              Y              Z
 ---- ---------------- ---------- -------------- -------------- --------------
    1 Ge                  32.0000     0.00000000     0.00000000     0.00000000

      Atomic Mass 
      ----------- 

      Ge                73.921900


 Effective nuclear repulsion energy (a.u.)       0.0000000000

            Nuclear Dipole moment (a.u.) 
            ----------------------------
        X                 Y               Z
 ---------------- ---------------- ----------------
     0.0000000000     0.0000000000     0.0000000000

  
  CAM type calculations without CDFIT are
  only available with the direct option.
  Forcing Direct SCF
  


     <<<<<<    Before call to DFT_SCF.    >>>>>>
     <<<<<< date:  May  8  time: 11:51:40 >>>>>>


 Setting tolerance for linear dependence to 1.00D-05



 Setting tolerance for linear dependence to 1.00D-05



 Setting tolerance for linear dependence to 1.00D-05

 Setting tolerance for linear dependence to 1.00D-05
 Setting tolerance for linear dependence to 1.00D-05
 Setting tolerance for linear dependence to 1.00D-05
 Setting tolerance for linear dependence to 1.00D-05
 Setting tolerance for linear dependence to 1.00D-05
  lindep tolerance =    1.0000000000000001E-005
  lindep tolerance =    1.0000000000000001E-005
  lindep tolerance =    1.0000000000000001E-005
  lindep tolerance =    1.0000000000000001E-005
  lindep tolerance =    1.0000000000000001E-005
  lindep tolerance =    1.0000000000000001E-005
  lindep tolerance =    1.0000000000000001E-005
  lindep tolerance =    1.0000000000000001E-005


     <<<<<<    Before 3c-2e initialize.   >>>>>>
     <<<<<< date:  May  8  time: 11:51:40 >>>>>>


 Setting fock-build task_bf   :      -1
                    maxquartet:   10000
                    maxeri    :  129600
                    maxscr    :       0
                    intacc    : 0.0D+00
                    denscreen : T
                    dentol    : 1.0D-06


      Superposition of Atomic Density Guess
      -------------------------------------

 Sum of atomic energies:       -2075.34639416

      Non-variational initial energy
      ------------------------------

 Total energy =   -2075.136959
 1-e energy   =   -2895.037946
 2-e energy   =     819.900987
 HOMO         =      -0.073955
 LUMO         =      -0.073955


 Setting fock-build task_bf   :      -1
                    maxquartet:   10000
                    maxeri    :  129600
                    maxscr    :       0
                    intacc    : 0.0D+00
                    denscreen : T
                    dentol    : 1.0D-06


 Wrote molecular orbitals to ./ge.movecs

  WARNING: movecs_in_org=atomic not equal to movecs_in=./ge.movecs
   Time after variat. SCF:      7.2

 Setting fock-build task_bf   :      -1
                    maxquartet:   10000
                    maxeri    :  129600
                    maxscr    :       0
                    intacc    : 0.0D+00
                    denscreen : T
                    dentol    : 1.0D-06

   Time prior to 1st pass:      7.2


     <<<<<<      Before SCF iter loop.    >>>>>>
     <<<<<< date:  May  8  time: 11:51:47 >>>>>>

           DAMPING=T LEVELSHIFTING=F DIISING=T
          itol2e= 8 iAOacc=12 iXCacc=20


     <<<<<<            calling 1-e int    >>>>>>
     <<<<<< date:  May  8  time: 11:51:47 >>>>>>

    Kinetic Matrix Time:          0.0s

           Kinetic energy =   2074.833529303670

    Potential Matrix Time:          0.0s


     <<<<<<    Before call to GETVXC.     >>>>>>
     <<<<<< date:  May  8  time: 11:51:47 >>>>>>



     <<<<<<    Before call to fock_2e.    >>>>>>
     <<<<<< date:  May  8  time: 11:51:47 >>>>>>



     <<<<<<     After call to fock_2e.    >>>>>>
     <<<<<< date:  May  8  time: 11:51:49 >>>>>>

    Fock_2e Build Time:          2.0s
  *** grid_quadv0:                    calc_type:                    1
  *** grid_quadv0:                    grid_written: F
  *** grid_quadv0:                    grad: T
  *** grid_quadv0:                    kske: F
  *** grid_quadv0:                    kslap: F
  *** grid_quadv0:                    do_scf: T
  *** grid_quadv0:                    fde_option:                    0
  *** grid_quadv0:                    n_per_rec:                 3070
  *** grid_quadv0:                    calc_type:                    1
  *** grid_quadv0:                    grid_written: F
  *** grid_quadv0:                    grad: T
  *** grid_quadv0:                    kske: F
  *** grid_quadv0:                    kslap: F
  *** grid_quadv0:                    do_scf: T
  *** grid_quadv0:                    fde_option:                    0
  *** grid_quadv0:                    calc_type:                    1
  *** grid_quadv0:                    grid_written: F
  *** grid_quadv0:                    grad: T
  *** grid_quadv0:                    kske: F
  *** grid_quadv0:                    kslap: F
  *** grid_quadv0:                    do_scf: T
  *** grid_quadv0:                    fde_option:                    0
  *** grid_quadv0:                    n_per_rec:                 3070
  *** grid_quadv0:                    calc_type:                    1
  *** grid_quadv0:                    grid_written: F
  *** grid_quadv0:                    grad: T
  *** grid_quadv0:                    kske: F
  *** grid_quadv0:                    kslap: F
  *** grid_quadv0:                    do_scf: T
  *** grid_quadv0:                    fde_option:                    0
  *** grid_quadv0:                    n_per_rec:                 3070
  *** grid_quadv0:                    calc_type:                    1
  *** grid_quadv0:                    grid_written: F
  *** grid_quadv0:                    grad: T
  *** grid_quadv0:                    kske: F
  *** grid_quadv0:                    kslap: F
  *** grid_quadv0:                    do_scf: T
  *** grid_quadv0:                    fde_option:                    0
  *** grid_quadv0:                    n_per_rec:                 3070
  *** grid_quadv0:                    calc_type:                    1
  *** grid_quadv0:                    grid_written: F
  *** grid_quadv0:                    grad: T
  *** grid_quadv0:                    kske: F
  *** grid_quadv0:                    kslap: F
  *** grid_quadv0:                    do_scf: T
  *** grid_quadv0:                    fde_option:                    0
  *** grid_quadv0:                    n_per_rec:                 3070
  *** grid_quadv0:                    calc_type:                    1
  *** grid_quadv0:                    grid_written: F
  *** grid_quadv0:                    grad: T
  *** grid_quadv0:                    kske: F
  *** grid_quadv0:                    kslap: F
  *** grid_quadv0:                    do_scf: T
  *** grid_quadv0:                    fde_option:                    0
  *** grid_quadv0:                    n_per_rec:                 3070
  *** grid_quadv0:                    n_per_rec:                 3070
  *** grid_quadv0:                    calc_type:                    1
  *** grid_quadv0:                    grid_written: F
  *** grid_quadv0:                    grad: T
  *** grid_quadv0:                    kske: F
  *** grid_quadv0:                    kslap: F
  *** grid_quadv0:                    do_scf: T
  *** grid_quadv0:                    fde_option:                    0
  *** grid_quadv0:                    n_per_rec:                 3070
   1: nuse=   8 avail= 12500000Mb on .
   2: nuse=   8 avail= 12500000Mb on .
   3: nuse=   8 avail= 12500000Mb on .
   4: nuse=   8 avail= 12500000Mb on .
   5: nuse=   8 avail= 12500000Mb on .
   6: nuse=   8 avail= 12500000Mb on .
   7: nuse=   8 avail= 12500000Mb on .
   0: nuse=   8 avail= 12500000Mb on .
 l_cube input   11.00

  atom type   l_cube   no. cubes   segmts   rad   sub
 ----------- -------- ----------- -------- ----- -----
        1      9.20       124         5      23     8

 Grid_pts file          = ./ge.gridpts.0
 Record size in doubles =  12289        No. of grid_pts per rec  =   3070
 Max. records in memory =      8        Max. recs in file   = 126656358

 me   0 NQTOTC NQ/cube   13395     230
 me   1 NQTOTC NQ/cube    7687     698
 me   2 NQTOTC NQ/cube    8214     746
 me   3 NQTOTC NQ/cube    6487     648
 me   4 NQTOTC NQ/cube    6521     592
 me   5 NQTOTC NQ/cube    6702    1675
 me   6 NQTOTC NQ/cube    6048     504
 me   7 NQTOTC NQ/cube    6354     907

 XC quadr. integrated density :      32.000000 npts:    61168 nctrs:        1

    Fock_xc Build Time:          0.1s


     <<<<<<    Before call to GETVCOUL.   >>>>>>
     <<<<<< date:  May  8  time: 11:51:49 >>>>>>



     <<<<<<    End of parallel region.    >>>>>>
     <<<<<< date:  May  8  time: 11:51:49 >>>>>>

    Total Fock Matrix Build Time:          2.2s
 Etnew, Ecore, Ecoul, Exc(1), Exc(2), Totsic:   -2076.6245055321451       -2892.4679964545812        894.51288020182574       -78.669389279389733        0.0000000000000000        0.0000000000000000     
  delta =   -2076.6245055321451     
  delta =   -2076.6245055321451     
  delta =   -2076.6245055321451     
  delta =   -2076.6245055321451     


         Total DFT energy =    -2076.624505532145
      One electron energy =    -2892.467996454581
           Coulomb energy =      894.512880201826
    Exchange-Corr. energy =      -78.669389279390
 Nuclear repulsion energy =        0.000000000000

  delta =   -2076.6245055321451     
  delta =   -2076.6245055321451     
  delta =   -2076.6245055321451     
  delta =   -2076.6245055321451     
 Numeric. integr. density =       31.999999997389

     Total iterative time =     10.3s




     <<<<<<        calling diis driver    >>>>>>
     <<<<<< date:  May  8  time: 11:51:49 >>>>>>

 nhist                     1  pulay matrix 
   0.0000E+00
  -1.0000E+00   6.4727E-01


     <<<<<<         called diis driver    >>>>>>
     <<<<<< date:  May  8  time: 11:51:49 >>>>>>


 global array: fock transf[1:69,1:69],  handle: -940 

            1           2           3           4           5           6  
       ----------- ----------- ----------- ----------- ----------- -----------
   1      11.28073    -0.00000     0.00000    -0.00000   -18.22724    -6.19025
   2      -0.00000     2.73712     0.00051     0.00134    -0.00000     0.00000
   3       0.00000     0.00051     2.73902    -0.00033     0.00000    -0.00000
   4      -0.00000     0.00134    -0.00033     2.73827    -0.00000     0.00000
   5     -18.22724    -0.00000     0.00000    -0.00000    46.46674    21.08812
   6      -6.19025     0.00000    -0.00000     0.00000    21.08812    11.81622
   7      -0.00000    -0.43374     0.00818    -0.19756    -0.00000     0.00000
   8       0.00000    -0.19544    -0.10967     0.42147     0.00000    -0.00000
   9       0.00000     0.03925    -0.46351    -0.10363     0.00000    -0.00000
  10      -0.47250    -0.00000     0.00000    -0.00000     1.64147     1.19190
  11      -0.00000    -0.00106     0.00031     0.00094    -0.00000     0.00000
  12       0.66434    -0.00000     0.00000    -0.00000    -1.75967    -1.06847
  13       0.00000    -0.00044     0.00049     0.00007     0.00000    -0.00000
  14       0.00000    -0.00027     0.00014     0.00007     0.00000    -0.00000
  15       0.00000    -0.00119     0.00018     0.00056     0.00000    -0.00000
  16      -0.00019     0.00000    -0.00000     0.00000     0.00011    -0.00030
  17       0.00080    -0.00000    -0.00000    -0.00000    -0.00044     0.00121
  18       0.00083     0.00000     0.00000    -0.00000    -0.00046     0.00126
  19      -0.00000     0.00511    -0.01649     0.02232    -0.00000     0.00000
  20      -0.00000     0.01492     0.02030     0.01166    -0.00000     0.00000
  21       0.00000     0.02328    -0.01039    -0.01420     0.00000    -0.00000
  22      -0.00000    -0.00044     0.00020     0.00080    -0.00000     0.00000
  23      -0.00045     0.00000    -0.00000     0.00000     0.00024    -0.00068
  24       0.00033    -0.00000     0.00000    -0.00000    -0.00018     0.00050
  25      -0.00000     0.11978    -0.03336     0.17943    -0.00000     0.00000
  26      -0.00000    -0.15503     0.09413     0.12032    -0.00000     0.00000
  27      -0.00000    -0.09634    -0.19403     0.02777    -0.00000     0.00000
  28      -0.00000     0.00010    -0.00059     0.00022    -0.00000     0.00000
  29      -0.00000    -0.00013    -0.00056     0.00018    -0.00000     0.00000
  30       0.00000    -0.00092     0.00029    -0.00000     0.00000    -0.00000
  31       0.00005     0.00000    -0.00000     0.00000     0.00007     0.00008
  32       0.00012    -0.00000    -0.00000    -0.00000     0.00017     0.00019
  33       0.00010    -0.00000     0.00000    -0.00000     0.00014     0.00015
  34      -0.00000    -0.01722    -0.01818     0.02829    -0.00000     0.00000
  35       0.00000    -0.00101    -0.02992    -0.02213     0.00000    -0.00000
  36       0.00000    -0.03345     0.01156    -0.01149     0.00000    -0.00000
  37       0.00004    -0.00000     0.00000    -0.00000     0.00003    -0.00036
  38       0.00001    -0.00000     0.00000     0.00000     0.00001    -0.00012
  39       0.00001    -0.00000     0.00000    -0.00000     0.00001    -0.00008
  40       0.02216     0.00000    -0.00000     0.00000     0.06724     0.21167
  41      -0.00008     0.00000    -0.00000     0.00000    -0.00011    -0.00012
  42      -0.00000     0.00000    -0.00000     0.00000    -0.00000    -0.00000
  43      -0.00000    -0.03134    -0.00080     0.00206    -0.00000     0.00000
  44      -0.00000    -0.00111     0.03254    -0.00661    -0.00000     0.00000
  45       0.00000     0.00318     0.00631     0.03222     0.00000    -0.00000
  46       0.00014     0.00000    -0.00000     0.00000     0.00018    -0.00001
  47       0.00033    -0.00000     0.00000    -0.00000     0.00044    -0.00001
  48      -0.00000     0.00000     0.00000     0.00000    -0.00000     0.00000
  49       0.00002    -0.00000     0.00000    -0.00000     0.00001    -0.00018
  50       0.00001     0.00000    -0.00000     0.00000     0.00000    -0.00005
  51       0.16600    -0.00000     0.00000    -0.00000    -0.34353    -0.03871
  52      -0.00000     0.00552    -0.03021    -0.01035    -0.00000     0.00000
  53       0.00000    -0.01366     0.00722    -0.02841     0.00000    -0.00000
  54      -0.00000    -0.02898    -0.00906     0.01167    -0.00000     0.00000
  55       0.05803    -0.00000     0.00000    -0.00000    -0.18729    -0.12877
  56       0.00000     0.00109    -0.00239     0.01007     0.00000    -0.00000
  57      -0.00000     0.00198     0.00987     0.00223    -0.00000     0.00000
  58       0.00000     0.01077    -0.00190    -0.00232     0.00000    -0.00000
  59       0.00010    -0.00000     0.00000    -0.00000     0.00014    -0.00000
  60       0.00014    -0.00000     0.00000    -0.00000     0.00018    -0.00001
  61      -0.00000    -0.00147     0.03966     0.00321    -0.00000     0.00000
  62      -0.00000     0.01210     0.00334    -0.03801    -0.00000     0.00000
  63       0.00000     0.03830     0.00033     0.01169     0.00000    -0.00000
  64      -0.06096    -0.00000     0.00000    -0.00000     0.22108     0.13261
  65      -0.28800     0.00000    -0.00000     0.00000     0.63980     0.22359
  66      -0.00000     0.00250    -0.01053     0.01294    -0.00000     0.00000
  67      -0.00000    -0.00378     0.01179     0.00951    -0.00000     0.00000
  68      -0.00000     0.01446     0.00577     0.00266    -0.00000     0.00000
  69      -0.08009    -0.00000     0.00000    -0.00000     0.13819     0.02936

            7           8           9          10          11          12  
       ----------- ----------- ----------- ----------- ----------- -----------
   1      -0.00000     0.00000     0.00000    -0.47250    -0.00000     0.66434
   2      -0.43374    -0.19544     0.03925    -0.00000    -0.00106    -0.00000
   3       0.00818    -0.10967    -0.46351     0.00000     0.00031     0.00000
   4      -0.19756     0.42147    -0.10363    -0.00000     0.00094    -0.00000
   5      -0.00000     0.00000     0.00000     1.64147    -0.00000    -1.75967
   6       0.00000    -0.00000    -0.00000     1.19190     0.00000    -1.06847
   7       0.70882    -0.00138     0.00060    -0.00000     0.00042    -0.00000
   8      -0.00138     0.70816     0.00084     0.00000     0.00113     0.00000
   9       0.00060     0.00084     0.70947     0.00000    -0.00055     0.00000
  10      -0.00000     0.00000     0.00000     0.44964    -0.00000    -0.57246
  11       0.00042     0.00113    -0.00055    -0.00000     1.04428    -0.00000
  12      -0.00000     0.00000     0.00000    -0.57246    -0.00000     2.30054
  13       0.00044    -0.00007    -0.00076     0.00000     0.00004     0.00000
  14       0.00025     0.00009    -0.00017     0.00000     0.00003     0.00000
  15       0.00089     0.00081    -0.00028     0.00000     0.00053     0.00000
  16       0.00000    -0.00000    -0.00000    -0.00008    -0.00000     0.00035
  17      -0.00000     0.00000    -0.00000     0.00034    -0.00000    -0.00142
  18       0.00000     0.00000     0.00000     0.00036    -0.00000    -0.00148
  19      -0.12102     0.17515     0.09887    -0.00000    -0.00050    -0.00000
  20      -0.15576    -0.00904    -0.17450    -0.00000    -0.00038    -0.00000
  21      -0.12602    -0.15741     0.12212     0.00000     0.00034     0.00000
  22       0.00007     0.00079    -0.00037    -0.00000    -0.34514    -0.00000
  23       0.00000    -0.00000    -0.00000    -0.00019     0.00000     0.00079
  24      -0.00000     0.00000     0.00000     0.00014    -0.00000    -0.00059
  25      -0.41208     0.26344     0.00722    -0.00000     0.00019    -0.00000
  26       0.20727     0.33133    -0.29194    -0.00000     0.00111    -0.00000
  27       0.16275     0.24316     0.39207    -0.00000     0.00021    -0.00000
  28      -0.00018     0.00026     0.00046    -0.00000    -0.00000    -0.00000
  29      -0.00000     0.00027     0.00036    -0.00000    -0.00010    -0.00000
  30       0.00065     0.00027    -0.00033     0.00000    -0.00060     0.00000
  31       0.00000    -0.00000    -0.00000    -0.00008    -0.00000     0.00020
  32      -0.00000     0.00000    -0.00000    -0.00018     0.00000     0.00046
  33      -0.00000     0.00000     0.00000    -0.00014     0.00000     0.00037
  34       0.00735     0.07981     0.02414    -0.00000     0.00069    -0.00000
  35       0.02301    -0.02600     0.07589     0.00000    -0.00045     0.00000
  36       0.07954     0.00049    -0.02481     0.00000     0.00021     0.00000
  37      -0.00000     0.00000    -0.00000    -0.00080    -0.00000     0.00329
  38      -0.00000     0.00000     0.00000    -0.00027    -0.00000     0.00110
  39      -0.00000     0.00000     0.00000    -0.00017     0.00000     0.00071
  40       0.00000    -0.00000    -0.00000     0.20940     0.00000    -0.09952
  41       0.00000    -0.00000    -0.00000     0.00011     0.00000    -0.00030
  42       0.00000    -0.00000    -0.00000     0.00000     0.00000    -0.00001
  43      -0.01850    -0.01054     0.00181    -0.00000     0.00011    -0.00000
  44      -0.00256     0.00783     0.01883    -0.00000    -0.00006    -0.00000
  45       0.00974    -0.01611     0.00822     0.00000     0.00048     0.00000
  46       0.00000     0.00000    -0.00000    -0.00014    -0.00000    -0.00075
  47      -0.00000     0.00000     0.00000    -0.00035     0.00000    -0.00182
  48       0.00000     0.00000     0.00000     0.00000     0.00000     0.00001
  49      -0.00000     0.00000     0.00000    -0.00040    -0.00000     0.00163
  50       0.00000    -0.00000    -0.00000    -0.00011     0.00000     0.00044
  51      -0.00000     0.00000     0.00000    -0.01079    -0.00000     1.72577
  52      -0.00031    -0.00126     0.00972    -0.00000    -0.00003    -0.00000
  53       0.00742    -0.00644    -0.00061     0.00000    -0.00004     0.00000
  54       0.00639     0.00722     0.00127    -0.00000     0.00002    -0.00000
  55      -0.00000     0.00000     0.00000    -0.13376    -0.00000     1.83971
  56      -0.03212     0.05289     0.00197     0.00000    -0.00044     0.00000
  57      -0.01564    -0.00710    -0.05938    -0.00000    -0.00019    -0.00000
  58      -0.05098    -0.03268     0.01764     0.00000    -0.00026     0.00000
  59      -0.00000     0.00000     0.00000    -0.00011    -0.00000    -0.00057
  60      -0.00000     0.00000     0.00000    -0.00014     0.00000    -0.00075
  61       0.00060    -0.00292    -0.02290    -0.00000    -0.00028    -0.00000
  62       0.00207    -0.02363     0.00395    -0.00000     0.00100    -0.00000
  63      -0.02356    -0.00404     0.00057     0.00000    -0.00014     0.00000
  64      -0.00000     0.00000     0.00000     0.05204    -0.00000    -0.74358
  65       0.00000    -0.00000    -0.00000     0.06671     0.00000    -1.37116
  66      -0.00463     0.00808     0.00457    -0.00000    -0.00062    -0.00000
  67       0.00047     0.00534    -0.00896    -0.00000    -0.00055    -0.00000
  68      -0.00940    -0.00388    -0.00270    -0.00000    -0.00037    -0.00000
  69      -0.00000     0.00000     0.00000    -0.00878    -0.00000    -0.20600

           13          14          15          16          17          18  
       ----------- ----------- ----------- ----------- ----------- -----------
   1       0.00000     0.00000     0.00000    -0.00019     0.00080     0.00083
   2      -0.00044    -0.00027    -0.00119     0.00000    -0.00000     0.00000
   3       0.00049     0.00014     0.00018    -0.00000    -0.00000     0.00000
   4       0.00007     0.00007     0.00056     0.00000    -0.00000    -0.00000
   5       0.00000     0.00000     0.00000     0.00011    -0.00044    -0.00046
   6      -0.00000    -0.00000    -0.00000    -0.00030     0.00121     0.00126
   7       0.00044     0.00025     0.00089     0.00000    -0.00000     0.00000
   8      -0.00007     0.00009     0.00081    -0.00000     0.00000     0.00000
   9      -0.00076    -0.00017    -0.00028    -0.00000    -0.00000     0.00000
  10       0.00000     0.00000     0.00000    -0.00008     0.00034     0.00036
  11       0.00004     0.00003     0.00053    -0.00000    -0.00000    -0.00000
  12       0.00000     0.00000     0.00000     0.00035    -0.00142    -0.00148
  13       1.04347    -0.00052     0.00009    -0.00000     0.00000     0.00000
  14      -0.00052     1.04505     0.00006    -0.00000    -0.00000     0.00000
  15       0.00009     0.00006     1.04335    -0.00000    -0.00000     0.00000
  16      -0.00000    -0.00000    -0.00000     0.94128     0.00050    -0.00015
  17       0.00000    -0.00000    -0.00000     0.00050     0.94278    -0.00018
  18       0.00000     0.00000     0.00000    -0.00015    -0.00018     0.94205
  19       0.00003     0.00064    -0.00002     0.00000    -0.00000    -0.00000
  20       0.00007    -0.00040     0.00020     0.00000    -0.00000     0.00000
  21      -0.00017     0.00013    -0.00003     0.00000    -0.00000    -0.00000
  22      -0.00015    -0.00009    -0.00058    -0.00000    -0.00000    -0.00000
  23      -0.00000    -0.00000     0.00000     0.00009     0.00023    -0.00115
  24       0.00000    -0.00000     0.00000    -0.00137     0.00020    -0.00027
  25      -0.00009    -0.00012    -0.00012     0.00000    -0.00000    -0.00000
  26       0.00034     0.00026     0.00093    -0.00000     0.00000     0.00000
  27      -0.00005    -0.00013     0.00035     0.00000     0.00000    -0.00000
  28       0.15840     0.29393    -0.08618     0.00000     0.00000    -0.00000
  29       0.27612    -0.18070    -0.10057     0.00000    -0.00000     0.00000
  30      -0.13050    -0.02258    -0.31793    -0.00000     0.00000     0.00000
  31      -0.00000     0.00000     0.00000    -0.31584    -0.10694    -0.12846
  32       0.00000    -0.00000    -0.00000     0.12310    -0.33466    -0.02415
  33      -0.00000    -0.00000     0.00000     0.11307     0.06539    -0.33264
  34       0.00010    -0.00041     0.00014     0.00000     0.00000    -0.00000
  35       0.00023    -0.00034    -0.00005     0.00000     0.00000    -0.00000
  36       0.00002     0.00026     0.00009    -0.00000     0.00000     0.00000
  37       0.00000    -0.00000    -0.00000    -0.03352    -0.15293    -0.11500
  38      -0.00000     0.00000     0.00000     0.09960     0.08415    -0.14251
  39       0.00000    -0.00000    -0.00000     0.16212    -0.08385     0.06341
  40      -0.00000    -0.00000    -0.00000     0.00027    -0.00110    -0.00115
  41      -0.00000    -0.00000    -0.00000     0.00002     0.00006     0.00003
  42      -0.00000    -0.00000    -0.00000     0.00004    -0.00001     0.00003
  43       0.00004     0.00003     0.00015     0.00000    -0.00000     0.00000
  44       0.00041     0.00038    -0.00007     0.00000     0.00000    -0.00000
  45      -0.00021    -0.00012    -0.00017    -0.00000     0.00000    -0.00000
  46      -0.00000     0.00000    -0.00000     0.09556     0.01569     0.06987
  47       0.00000     0.00000     0.00000    -0.06009     0.07915     0.06067
  48       0.00000     0.00000     0.00000    -0.03988    -0.08780     0.07373
  49       0.00000     0.00000     0.00000    -0.00003    -0.00045    -0.00041
  50      -0.00000    -0.00000    -0.00000     0.00012    -0.00016    -0.00000
  51      -0.00000     0.00000     0.00000     0.00000    -0.00001    -0.00001
  52      -0.00007    -0.00001     0.00000     0.00000     0.00000    -0.00000
  53       0.00005     0.00002     0.00003    -0.00000     0.00000     0.00000
  54      -0.00002     0.00000     0.00005    -0.00000     0.00000    -0.00000
  55      -0.00000     0.00000     0.00000    -0.00003     0.00013     0.00014
  56       0.00078     0.00027     0.00036    -0.00000     0.00000     0.00000
  57      -0.00091    -0.00012     0.00038     0.00000     0.00000    -0.00000
  58       0.00018     0.00009     0.00020    -0.00000     0.00000     0.00000
  59       0.00000    -0.00000     0.00000    -0.00116    -0.00070    -0.00121
  60       0.00000    -0.00000     0.00000     0.00021    -0.00143    -0.00008
  61      -0.00143    -0.00034     0.00017     0.00000     0.00000    -0.00000
  62      -0.00058    -0.00019     0.00015     0.00000    -0.00000    -0.00000
  63       0.00047     0.00031     0.00097    -0.00000     0.00000    -0.00000
  64       0.00000    -0.00000     0.00000    -0.00005     0.00020     0.00021
  65       0.00000    -0.00000    -0.00000     0.00020    -0.00082    -0.00086
  66       0.00165     0.00049     0.00023     0.00000    -0.00000    -0.00000
  67      -0.00082    -0.00012     0.00026    -0.00000    -0.00000     0.00000
  68      -0.00025     0.00012     0.00085     0.00000    -0.00000     0.00000
  69       0.00000    -0.00000     0.00000    -0.00071     0.00289     0.00301

           19          20          21          22          23          24  
       ----------- ----------- ----------- ----------- ----------- -----------
   1      -0.00000    -0.00000     0.00000    -0.00000    -0.00045     0.00033
   2       0.00511     0.01492     0.02328    -0.00044     0.00000    -0.00000
   3      -0.01649     0.02030    -0.01039     0.00020    -0.00000     0.00000
   4       0.02232     0.01166    -0.01420     0.00080     0.00000    -0.00000
   5      -0.00000    -0.00000     0.00000    -0.00000     0.00024    -0.00018
   6       0.00000     0.00000    -0.00000     0.00000    -0.00068     0.00050
   7      -0.12102    -0.15576    -0.12602     0.00007     0.00000    -0.00000
   8       0.17515    -0.00904    -0.15741     0.00079    -0.00000     0.00000
   9       0.09887    -0.17450     0.12212    -0.00037    -0.00000     0.00000
  10      -0.00000    -0.00000     0.00000    -0.00000    -0.00019     0.00014
  11      -0.00050    -0.00038     0.00034    -0.34514     0.00000    -0.00000
  12      -0.00000    -0.00000     0.00000    -0.00000     0.00079    -0.00059
  13       0.00003     0.00007    -0.00017    -0.00015    -0.00000     0.00000
  14       0.00064    -0.00040     0.00013    -0.00009    -0.00000    -0.00000
  15      -0.00002     0.00020    -0.00003    -0.00058     0.00000     0.00000
  16       0.00000     0.00000     0.00000    -0.00000     0.00009    -0.00137
  17      -0.00000    -0.00000    -0.00000    -0.00000     0.00023     0.00020
  18      -0.00000     0.00000    -0.00000    -0.00000    -0.00115    -0.00027
  19       1.04269     0.00029    -0.00057     0.00032     0.00000    -0.00000
  20       0.00029     1.04282    -0.00059     0.00017     0.00000    -0.00000
  21      -0.00057    -0.00059     1.04262     0.00009    -0.00000     0.00000
  22       0.00032     0.00017     0.00009     0.63613     0.00000    -0.00000
  23       0.00000     0.00000    -0.00000     0.00000     0.94080     0.00020
  24      -0.00000    -0.00000     0.00000    -0.00000     0.00020     0.94207
  25       0.11203     0.07007     0.01321    -0.00011     0.00000    -0.00000
  26       0.00451     0.01850    -0.13036    -0.00216     0.00000    -0.00000
  27       0.07143    -0.11109    -0.01221    -0.00053     0.00000    -0.00000
  28       0.00049    -0.00022    -0.00001     0.00016    -0.00000    -0.00000
  29      -0.00023     0.00027    -0.00006     0.00034    -0.00000    -0.00000
  30      -0.00015    -0.00009     0.00065     0.00144    -0.00000     0.00000
  31       0.00000     0.00000     0.00000    -0.00000     0.00001    -0.00006
  32      -0.00000    -0.00000    -0.00000     0.00000     0.00005    -0.00001
  33      -0.00000     0.00000    -0.00000     0.00000    -0.00000    -0.00002
  34      -0.25996     0.10397     0.17525     0.00122     0.00000    -0.00000
  35      -0.00317     0.28096    -0.17423    -0.00115    -0.00000     0.00000
  36       0.20330     0.13817     0.21948     0.00059    -0.00000     0.00000
  37      -0.00000    -0.00000    -0.00000    -0.00000     0.00045    -0.00041
  38      -0.00000     0.00000    -0.00000     0.00000     0.00005    -0.00008
  39      -0.00000    -0.00000    -0.00000    -0.00000     0.00016     0.00008
  40       0.00000     0.00000    -0.00000     0.00000     0.00061    -0.00046
  41       0.00000     0.00000    -0.00000     0.00000    -0.29009     0.20874
  42       0.00000     0.00000    -0.00000     0.00000     0.20873     0.29001
  43       0.00243     0.01132     0.01775    -0.00049     0.00000    -0.00000
  44       0.01524    -0.01284     0.00607    -0.00001     0.00000    -0.00000
  45      -0.01400    -0.01239     0.01040    -0.00033    -0.00000     0.00000
  46       0.00000     0.00000     0.00000    -0.00000     0.00009    -0.00173
  47      -0.00000    -0.00000    -0.00000     0.00000     0.00113    -0.00051
  48      -0.00000     0.00000    -0.00000     0.00000    -0.00091     0.00015
  49      -0.00000    -0.00000     0.00000    -0.00000     0.11929    -0.15229
  50       0.00000     0.00000    -0.00000     0.00000     0.15226     0.11885
  51      -0.00000    -0.00000     0.00000    -0.00000     0.00001    -0.00000
  52      -0.05606     0.11754    -0.10326     0.00001     0.00000    -0.00000
  53       0.15000     0.07148    -0.00008     0.00003    -0.00000     0.00000
  54      -0.04431     0.09329     0.13034    -0.00000     0.00000    -0.00000
  55      -0.00000    -0.00000     0.00000    -0.00000    -0.00008     0.00006
  56       0.06421     0.02046    -0.01826     0.00026    -0.00000     0.00000
  57      -0.02531     0.06281    -0.01937     0.00012     0.00000    -0.00000
  58       0.01094     0.02528     0.06482     0.00056     0.00000     0.00000
  59      -0.00000    -0.00000     0.00000    -0.00000    -0.00014     0.12027
  60      -0.00000    -0.00000     0.00000    -0.00000    -0.11870    -0.00155
  61       0.11880    -0.16203     0.09421     0.00036     0.00000    -0.00000
  62       0.16332     0.03429    -0.14693    -0.00116     0.00000    -0.00000
  63      -0.09310    -0.14658    -0.13636    -0.00016    -0.00000     0.00000
  64      -0.00000    -0.00000     0.00000    -0.00000    -0.00011     0.00008
  65       0.00000     0.00000    -0.00000     0.00000     0.00046    -0.00034
  66      -0.03395     0.00212     0.00237    -0.00025     0.00000    -0.00000
  67      -0.00006    -0.01937     0.02856    -0.00172     0.00000    -0.00000
  68      -0.00263    -0.02627    -0.01960     0.00187     0.00000    -0.00000
  69      -0.00000    -0.00000     0.00000    -0.00000    -0.00161     0.00120

           25          26          27          28          29          30  
       ----------- ----------- ----------- ----------- ----------- -----------
   1      -0.00000    -0.00000    -0.00000    -0.00000    -0.00000     0.00000
   2       0.11978    -0.15503    -0.09634     0.00010    -0.00013    -0.00092
   3      -0.03336     0.09413    -0.19403    -0.00059    -0.00056     0.00029
   4       0.17943     0.12032     0.02777     0.00022     0.00018    -0.00000
   5      -0.00000    -0.00000    -0.00000    -0.00000    -0.00000     0.00000
   6       0.00000     0.00000     0.00000     0.00000     0.00000    -0.00000
   7      -0.41208     0.20727     0.16275    -0.00018    -0.00000     0.00065
   8       0.26344     0.33133     0.24316     0.00026     0.00027     0.00027
   9       0.00722    -0.29194     0.39207     0.00046     0.00036    -0.00033
  10      -0.00000    -0.00000    -0.00000    -0.00000    -0.00000     0.00000
  11       0.00019     0.00111     0.00021    -0.00000    -0.00010    -0.00060
  12      -0.00000    -0.00000    -0.00000    -0.00000    -0.00000     0.00000
  13      -0.00009     0.00034    -0.00005     0.15840     0.27612    -0.13050
  14      -0.00012     0.00026    -0.00013     0.29393    -0.18070    -0.02258
  15      -0.00012     0.00093     0.00035    -0.08618    -0.10057    -0.31793
  16       0.00000    -0.00000     0.00000     0.00000     0.00000    -0.00000
  17      -0.00000     0.00000     0.00000     0.00000    -0.00000     0.00000
  18      -0.00000     0.00000    -0.00000    -0.00000     0.00000     0.00000
  19       0.11203     0.00451     0.07143     0.00049    -0.00023    -0.00015
  20       0.07007     0.01850    -0.11109    -0.00022     0.00027    -0.00009
  21       0.01321    -0.13036    -0.01221    -0.00001    -0.00006     0.00065
  22      -0.00011    -0.00216    -0.00053     0.00016     0.00034     0.00144
  23       0.00000     0.00000     0.00000    -0.00000    -0.00000    -0.00000
  24      -0.00000    -0.00000    -0.00000    -0.00000    -0.00000     0.00000
  25       1.34588     0.00021    -0.00006    -0.00009    -0.00009    -0.00021
  26       0.00021     1.34028    -0.00138     0.00019    -0.00019    -0.00174
  27      -0.00006    -0.00138     1.34556     0.00006     0.00017    -0.00023
  28      -0.00009     0.00019     0.00006     0.63501     0.00025    -0.00078
  29      -0.00009    -0.00019     0.00017     0.00025     0.63503    -0.00030
  30      -0.00021    -0.00174    -0.00023    -0.00078    -0.00030     0.63554
  31       0.00000    -0.00000     0.00000     0.00000     0.00000    -0.00000
  32      -0.00000     0.00000     0.00000     0.00000    -0.00000     0.00000
  33      -0.00000     0.00000    -0.00000    -0.00000     0.00000     0.00000
  34       0.05953     0.06738     0.09867    -0.00029     0.00034     0.00035
  35      -0.05193    -0.08342     0.09000    -0.00022     0.00001    -0.00167
  36      -0.10821     0.07850     0.01115    -0.00020    -0.00069    -0.00015
  37      -0.00000     0.00000     0.00000    -0.00000    -0.00000    -0.00000
  38      -0.00000     0.00000    -0.00000     0.00000     0.00000     0.00000
[...]
  47      -0.00008    -0.00012     0.00003     0.58270    -0.00010    -0.00002
  48      -0.00000     0.00000     0.00000    -0.00030    -0.00000     0.00000
  49      -0.00008    -0.00013     0.00003     0.58279    -0.00010    -0.00002
  50      -3.79728     0.81040    -3.00558    -0.00004   -13.15079    -8.68265
  51      -1.81986    -4.47828     1.19227    -0.00189    -6.23424    -0.96343
  52       2.45119    -2.06455    -3.78894     0.00003     8.39696   -14.30962
  53      -3.79104     0.78658    -2.98862    -0.00004   -13.15257    -8.68517
  54       0.03495     0.01603    -0.01627    -0.00000    -0.00998     0.00306
  55      -3.80160     0.82091    -2.97314    -0.00004   -13.14956    -8.69280
  56      -1.79457    -4.46508     1.20163    -0.00189    -6.24146    -0.96732
  57       2.42265    -2.03844    -3.79686     0.00002     8.40511   -14.30987
  58      -1.80368    -4.46299     1.21398    -0.00189    -6.23886    -0.97100
  59       2.41937    -2.05355    -3.79669     0.00003     8.40605   -14.30848
  60      -3.51896     0.73431    -2.72338    -0.00002    -5.77691    -3.80536
  61      -1.66218    -4.06269     1.09840    -0.00076    -2.74327    -0.42550
  62       2.23881    -1.86415    -3.45753     0.00001     3.69494    -6.26710
  63      -3.52150     0.74364    -2.73002    -0.00002    -5.77610    -3.80416
  64      -0.01420    -0.00628     0.00637     0.00000     0.00459    -0.00146
  65      -3.51721     0.73020    -2.73609    -0.00002    -5.77748    -3.80053
  66      -1.67246    -4.06786     1.09473    -0.00076    -2.73995    -0.42365
  67       2.25040    -1.87438    -3.45443     0.00001     3.69120    -6.26698
  68      -1.66875    -4.06867     1.08990    -0.00076    -2.74115    -0.42190
  69       2.25173    -1.86846    -3.45449     0.00001     3.69077    -6.26764

           67          68          69  
       ----------- ----------- -----------
   1       0.00001     0.91748     1.03549
   2       0.00008     6.74540    15.64609
   3       0.00012    28.02083    30.83291
   4      -0.00018    39.82707     9.96421
   5      -0.00086   -18.00960    19.58497
   6       0.00150    31.65453     5.87839
   7       0.00037     4.05645     1.14123
   8      -0.40483     0.00001     0.00000
   9       1.08539     0.00002    -0.00000
  10       0.17235    -0.00000    -0.00000
  11      -4.87777     0.00008     0.00000
  12      13.07785     0.00020    -0.00005
  13       2.07663    -0.00005    -0.00000
  14     -11.59354     0.00018     0.00000
  15      31.08356     0.00048    -0.00011
  16       4.93575    -0.00011    -0.00000
  17       2.85936    -0.00005    -0.00000
  18      -7.66626    -0.00011     0.00003
  19      -1.21732     0.00003     0.00000
  20      -2.52009     0.00005     0.00000
  21       6.75665     0.00004    -0.00003
  22       1.07289    -0.00003    -0.00000
  23       0.21586    -0.00001    -0.00000
  24      -0.57874     0.00000     0.00000
  25      -0.09190     0.00000     0.00000
  26      -0.00005    -0.67106   -18.17036
  27       0.00000    -0.00053     0.00000
  28      -0.00000     0.00072    -0.00001
  29      -0.00005    -0.67063   -18.17036
  30      -0.00000     0.00034    -0.00000
  31      -0.00005    -0.67073   -18.17036
  32       0.00017   -10.13025    -7.95456
  33      -0.00000     0.00178    -0.00002
  34       0.00000    -0.00239     0.00003
  35       0.00017   -10.13170    -7.95454
  36       0.00000    -0.00114     0.00001
  37       0.00017   -10.13136    -7.95454
  38      -0.00050   -15.87913    -3.12186
  39       0.00000    -0.00153     0.00003
  40      -0.00000     0.00206    -0.00004
  41      -0.00050   -15.87788    -3.12189
  42      -0.00000     0.00098    -0.00002
  43      -0.00050   -15.87818    -3.12188
  44      -0.00024    -3.26039    -0.76591
  45      -0.00000     0.00061    -0.00001
  46       0.00000    -0.00083     0.00002
  47      -0.00024    -3.26089    -0.76590
  48       0.00000    -0.00039     0.00001
  49      -0.00024    -3.26077    -0.76590
  50       5.79380    -0.00009    -0.00000
  51     -15.53619    -0.00024     0.00005
  52      -2.46340     0.00006     0.00000
  53       5.80213    -0.00009    -0.00000
  54      -0.00606    -0.00000     0.00000
  55       5.79391    -0.00009    -0.00000
  56     -15.53902    -0.00024     0.00005
  57      -2.47152     0.00006     0.00000
  58     -15.53844    -0.00024     0.00005
  59      -2.46724     0.00006     0.00000
  60       2.53925    -0.00005    -0.00000
  61      -6.80689    -0.00007     0.00003
  62      -1.08257     0.00003     0.00000
  63       2.53529    -0.00005    -0.00000
  64       0.00289     0.00000     0.00000
  65       2.53920    -0.00005    -0.00000
  66      -6.80554    -0.00007     0.00003
  67      -1.07871     0.00003     0.00000
  68      -6.80582    -0.00007     0.00003
  69      -1.08074     0.00003     0.00000
  int_init: cando_txs set to always be  F
                                NWChem TDDFT Module
                                -------------------


            General Information
            -------------------
           No. of orbitals :     138
            Alpha orbitals :      69
             Beta orbitals :      69
        Alpha frozen cores :       0
         Beta frozen cores :       0
     Alpha frozen virtuals :       0
      Beta frozen virtuals :       0
         Spin multiplicity :       3
    Number of AO functions :      69
        Use of symmetry is : off
      Symmetry adaption is : off
         Schwarz screening :  0.10D-07

              XC Information
              --------------
              Hartree-Fock (Exact) Exchange   1.00          
              LC-wPBE(h)Exchange Functional   1.00          
     Perdew 1991 LDA Correlation Functional   1.00 local    
    PerdewBurkeErnz. Correlation Functional   1.00 non-local
           Alpha           :  0.00
           Beta            :  1.00
           Gamma           :  0.24

             TDDFT Information
             -----------------
          Calculation type : TDDFT             
         Wavefunction type : Unrestricted
          No. of electrons :      32
           Alpha electrons :      17
            Beta electrons :      15
              No. of roots :       5
          Max subspacesize :    5000
            Max iterations :     100
               Target root :       1
           Target symmetry : none
      Symmetry restriction : off
                 Algorithm : Optimal
        Davidson threshold :  0.10D-03

            Memory Information
            ------------------
          Available GA space size is       52428790478 doubles
          Available MA space size is        4194421852 doubles
          Length of a trial vector is          884     810
          Algorithm : Incore multiple tensor contraction
          Estimated peak GA usage is          34696788 doubles
          Estimated peak MA usage is             18000 doubles

    5 smallest eigenvalue differences (eV) 
--------------------------------------------------------
  No. Spin  Occ  Vir  Irrep   E(Occ)    E(Vir)   E(Diff)
--------------------------------------------------------
    1    1   17   18 a        -0.266    -0.058     5.671
    2    1   16   18 a        -0.266    -0.058     5.671
    3    1   17   19 a        -0.266     0.031     8.073
    4    1   16   19 a        -0.266     0.031     8.073
    5    1   17   20 a        -0.266     0.053     8.691
--------------------------------------------------------

  Entering Davidson iterations
  Unrestricted

  Iter   NTrls   NConv    DeltaV     DeltaE      Time   
  ----  ------  ------  ---------  ---------  --------- 
    1      5       0     0.60E-01   0.10+100       10.0
    2     15       0     0.28E-01   0.88E-02       12.5
    3     25       0     0.91E-02   0.50E-03       12.5
    4     33       1     0.17E-02   0.30E-04       11.6
    5     39       2     0.31E-03   0.65E-06       10.7
    6     44       5     0.73E-04   0.40E-07       10.1
  ----  ------  ------  ---------  ---------  --------- 
  Convergence criterion met

  Ground state a       -2076.661769914143 a.u.
  <S2> =   2.0040

  ----------------------------------------------------------------------------
  Root   1         a              0.000021728 a.u.                0.0006 eV 
  <S2> =   2.0041
  ----------------------------------------------------------------------------
     Transition Moments    X -0.00000   Y  0.00000   Z -0.00000
     Transition Moments   XX 18.85996  XY  4.14616  XZ  8.48665
     Transition Moments   YY -0.31117  YZ  7.09524  ZZ-18.54878
     Dipole Oscillator Strength                    0.0000000000
     Electric Quadrupole                           0.0000000000
     Magnetic Dipole                               0.0000000000
     Total Oscillator Strength                     0.0000000000

     Occ.   15 alpha a   ---  Virt.   25 alpha a   -0.15975 X
     Occ.   15 alpha a   ---  Virt.   25 alpha a   -0.15969 Y
     Occ.   15 alpha a   ---  Virt.   35 alpha a   -0.13904 X
     Occ.   15 alpha a   ---  Virt.   35 alpha a   -0.13901 Y
     Occ.   16 alpha a   ---  Virt.   18 alpha a    0.66677 X
     Occ.   16 alpha a   ---  Virt.   18 alpha a    0.65752 Y
     Occ.   16 alpha a   ---  Virt.   20 alpha a    0.07308 X
     Occ.   16 alpha a   ---  Virt.   20 alpha a    0.07209 Y
     Occ.   17 alpha a   ---  Virt.   18 alpha a   -5.94195 X
     Occ.   17 alpha a   ---  Virt.   18 alpha a   -5.85946 Y
     Occ.   17 alpha a   ---  Virt.   20 alpha a   -0.65120 X
     Occ.   17 alpha a   ---  Virt.   20 alpha a   -0.64245 Y
     Occ.   17 alpha a   ---  Virt.   29 alpha a    0.31782 X
     Occ.   17 alpha a   ---  Virt.   29 alpha a    0.31360 Y
     Occ.   15 beta  a   ---  Virt.   24 beta  a    0.16924 X
     Occ.   15 beta  a   ---  Virt.   24 beta  a    0.16923 Y
     Occ.   15 beta  a   ---  Virt.   25 beta  a    0.05176 X
     Occ.   15 beta  a   ---  Virt.   25 beta  a    0.05175 Y
     Occ.   15 beta  a   ---  Virt.   33 beta  a    0.08599 X
     Occ.   15 beta  a   ---  Virt.   33 beta  a    0.08599 Y
     Occ.   15 beta  a   ---  Virt.   34 beta  a    0.29015 X
     Occ.   15 beta  a   ---  Virt.   34 beta  a    0.29013 Y
     Occ.   15 beta  a   ---  Virt.   50 beta  a    0.12436 X
     Occ.   15 beta  a   ---  Virt.   50 beta  a    0.12436 Y
  ----------------------------------------------------------------------------
  Root   2         a              0.000021739 a.u.                0.0006 eV 
  <S2> =   2.0041
  ----------------------------------------------------------------------------
     Transition Moments    X -0.00001   Y -0.00000   Z  0.00000
     Transition Moments   XX-10.44452  XY 13.58852  XZ  7.09353
     Transition Moments   YY 15.24538  YZ -8.48490  ZZ -4.80086
     Dipole Oscillator Strength                    0.0000000000
     Electric Quadrupole                           0.0000000000
     Magnetic Dipole                               0.0000000000
     Total Oscillator Strength                     0.0000000000

     Occ.   15 alpha a   ---  Virt.   26 alpha a   -0.15971 X
     Occ.   15 alpha a   ---  Virt.   26 alpha a   -0.15964 Y
     Occ.   15 alpha a   ---  Virt.   34 alpha a   -0.13901 X
     Occ.   15 alpha a   ---  Virt.   34 alpha a   -0.13898 Y
     Occ.   16 alpha a   ---  Virt.   18 alpha a   -5.94049 X
     Occ.   16 alpha a   ---  Virt.   18 alpha a   -5.85799 Y
     Occ.   16 alpha a   ---  Virt.   20 alpha a   -0.65105 X
     Occ.   16 alpha a   ---  Virt.   20 alpha a   -0.64228 Y
     Occ.   16 alpha a   ---  Virt.   29 alpha a    0.31774 X
     Occ.   16 alpha a   ---  Virt.   29 alpha a    0.31352 Y
     Occ.   17 alpha a   ---  Virt.   18 alpha a   -0.66660 X
     Occ.   17 alpha a   ---  Virt.   18 alpha a   -0.65735 Y
     Occ.   17 alpha a   ---  Virt.   20 alpha a   -0.07306 X
     Occ.   17 alpha a   ---  Virt.   20 alpha a   -0.07207 Y
     Occ.   15 beta  a   ---  Virt.   24 beta  a   -0.05175 X
     Occ.   15 beta  a   ---  Virt.   24 beta  a   -0.05174 Y
     Occ.   15 beta  a   ---  Virt.   25 beta  a    0.16921 X
     Occ.   15 beta  a   ---  Virt.   25 beta  a    0.16919 Y
     Occ.   15 beta  a   ---  Virt.   33 beta  a    0.29008 X
     Occ.   15 beta  a   ---  Virt.   33 beta  a    0.29006 Y
     Occ.   15 beta  a   ---  Virt.   34 beta  a   -0.08597 X
     Occ.   15 beta  a   ---  Virt.   34 beta  a   -0.08597 Y
     Occ.   15 beta  a   ---  Virt.   51 beta  a    0.12433 X
     Occ.   15 beta  a   ---  Virt.   51 beta  a    0.12433 Y
  ----------------------------------------------------------------------------
  Root   3         a              0.160579978 a.u.                4.3696 eV 
  <S2> =   2.0058
  ----------------------------------------------------------------------------
     Transition Moments    X -0.50836   Y -0.09157   Z -0.86349
     Transition Moments   XX  0.00001  XY  0.00000  XZ -0.00000
     Transition Moments   YY  0.00001  YZ  0.00000  ZZ  0.00001
     Dipole Oscillator Strength                    0.1083832085
     Electric Quadrupole                           0.0000000000
     Magnetic Dipole                               0.0000000000
     Total Oscillator Strength                     0.1083832085

     Occ.   17 alpha a   ---  Virt.   19 alpha a    0.95853 X
     Occ.   17 alpha a   ---  Virt.   28 alpha a   -0.27698 X
  ----------------------------------------------------------------------------
  Root   4         a              0.160579978 a.u.                4.3696 eV 
  <S2> =   2.0058
  ----------------------------------------------------------------------------
     Transition Moments    X -0.36633   Y  0.92979   Z  0.11706
     Transition Moments   XX -0.00005  XY -0.00000  XZ  0.00000
     Transition Moments   YY -0.00005  YZ  0.00000  ZZ -0.00005
     Dipole Oscillator Strength                    0.1083831854
     Electric Quadrupole                           0.0000000000
     Magnetic Dipole                               0.0000000000
     Total Oscillator Strength                     0.1083831854

     Occ.   16 alpha a   ---  Virt.   19 alpha a   -0.95853 X
     Occ.   16 alpha a   ---  Virt.   28 alpha a    0.27698 X
  ----------------------------------------------------------------------------
  Root   5         a              0.197974747 a.u.                5.3872 eV 
  <S2> =   2.0044
  ----------------------------------------------------------------------------
     Transition Moments    X  0.00000   Y  0.00000   Z -0.00000
     Transition Moments   XX -1.22854  XY -0.39391  XZ -0.64476
     Transition Moments   YY -0.09724  YZ -0.42667  ZZ  1.32577
     Dipole Oscillator Strength                    0.0000000000
     Electric Quadrupole                           0.0000000988
     Magnetic Dipole                               0.0000000000
     Total Oscillator Strength                     0.0000000988

     Occ.   17 alpha a   ---  Virt.   18 alpha a    0.11510 X
     Occ.   17 alpha a   ---  Virt.   20 alpha a   -0.97519 X
     Occ.   17 alpha a   ---  Virt.   29 alpha a    0.18724 X

              Target root =      1
          Target symmetry = none
      Ground state energy =  -2076.661769914143
        Excitation energy =      0.000021728010
     Excited state energy =  -2076.661748186133

  stored tddft:energy   -2076.6617481861326     

 Task  times  cpu:       79.9s     wall:       92.9s


                                NWChem Input Module
                                -------------------


 Summary of allocated global arrays
-----------------------------------
  No active global arrays


MA_summarize_allocated_blocks: starting scan ...
heap block 'gridpts', handle 102, address 0x127a81a8:
	type of elements:		double precision
	number of elements:		1048456624
	address of client space:	0x127a8200
	index for client space:		10595223
	total number of bytes:		8387653088
MA_summarize_allocated_blocks: scan completed: 1 heap block, 0 stack blocks
MA usage statistics:

	allocation statistics:
					      heap	     stack
					      ----	     -----
	current number of blocks	         1	         0
	maximum number of blocks	        18	        54
	current total bytes		8387653088	         0
	maximum total bytes		8388447712	 109417528
	maximum total K-bytes		   8388448	    109418
	maximum total M-bytes		      8389	       110


                                     CITATION
                                     --------
                Please cite the following reference when publishing
                           results obtained with NWChem:

          E. Apra, E. J. Bylaska, W. A. de Jong, N. Govind, K. Kowalski,
       T. P. Straatsma, M. Valiev, H. J. J. van Dam, Y. Alexeev, J. Anchell,
       V. Anisimov, F. W. Aquino, R. Atta-Fynn, J. Autschbach, N. P. Bauman,
     J. C. Becca, D. E. Bernholdt, K. Bhaskaran-Nair, S. Bogatko, P. Borowski,
         J. Boschen, J. Brabec, A. Bruner, E. Cauet, Y. Chen, G. N. Chuev,
      C. J. Cramer, J. Daily, M. J. O. Deegan, T. H. Dunning Jr., M. Dupuis,
   K. G. Dyall, G. I. Fann, S. A. Fischer, A. Fonari, H. Fruchtl, L. Gagliardi,
      J. Garza, N. Gawande, S. Ghosh, K. Glaesemann, A. W. Gotz, J. Hammond,
       V. Helms, E. D. Hermes, K. Hirao, S. Hirata, M. Jacquelin, L. Jensen,
   B. G. Johnson, H. Jonsson, R. A. Kendall, M. Klemm, R. Kobayashi, V. Konkov,
      S. Krishnamoorthy, M. Krishnan, Z. Lin, R. D. Lins, R. J. Littlefield,
      A. J. Logsdail, K. Lopata, W. Ma, A. V. Marenich, J. Martin del Campo,
   D. Mejia-Rodriguez, J. E. Moore, J. M. Mullin, T. Nakajima, D. R. Nascimento,
    J. A. Nichols, P. J. Nichols, J. Nieplocha, A. Otero-de-la-Roza, B. Palmer,
    A. Panyala, T. Pirojsirikul, B. Peng, R. Peverati, J. Pittner, L. Pollack,
   R. M. Richard, P. Sadayappan, G. C. Schatz, W. A. Shelton, D. W. Silverstein,
   D. M. A. Smith, T. A. Soares, D. Song, M. Swart, H. L. Taylor, G. S. Thomas,
            V. Tipparaju, D. G. Truhlar, K. Tsemekhman, T. Van Voorhis,
      A. Vazquez-Mayagoitia, P. Verma, O. Villa, A. Vishnu, K. D. Vogiatzis,
        D. Wang, J. H. Weare, M. J. Williamson, T. L. Windus, K. Wolinski,
        A. T. Wong, Q. Wu, C. Yang, Q. Yu, M. Zacharias, Z. Zhang, Y. Zhao,
                                and R. J. Harrison
                        "NWChem: Past, present, and future
                         J. Chem. Phys. 152, 184102 (2020)
                               doi:10.1063/5.0004997

                                      AUTHORS
                                      -------
  E. Apra, E. J. Bylaska, N. Govind, K. Kowalski, M. Valiev, D. Mejia-Rodriguez,
       A. Kunitsa, N. P. Bauman, A. Panyala, W. A. de Jong, T. P. Straatsma,
   H. J. J. van Dam, D. Wang, T. L. Windus, J. Hammond, J. Autschbach, A. Woods,
    K. Bhaskaran-Nair, J. Brabec, K. Lopata, S. A. Fischer, S. Krishnamoorthy,
     M. Jacquelin, W. Ma, M. Klemm, O. Villa, Y. Chen, V. Anisimov, F. Aquino,
     S. Hirata, M. T. Hackler, E. Hermes, L. Jensen, J. E. Moore, J. C. Becca,
      V. Konjkov, T. Risthaus, M. Malagoli, A. Marenich, A. Otero-de-la-Roza,
        J. Mullin, P. Nichols, R. Peverati, J. Pittner, Y. Zhao, P.-D. Fan,
        A. Fonari, M. J. Williamson, R. J. Harrison, J. R. Rehr, M. Dupuis,
     D. Silverstein, D. M. A. Smith, J. Nieplocha, V. Tipparaju, M. Krishnan,
     B. E. Van Kuiken, A. Vazquez-Mayagoitia, M. Swart, Q. Wu, T. Van Voorhis,
     A. A. Auer, M. Nooijen, L. D. Crosby, E. Brown, G. Cisneros, G. I. Fann,
   H. Fruchtl, J. Garza, K. Hirao, R. A. Kendall, J. A. Nichols, K. Tsemekhman,
    K. Wolinski, J. Anchell, D. E. Bernholdt, P. Borowski, T. Clark, D. Clerc,
   H. Dachsel, M. J. O. Deegan, K. Dyall, D. Elwood, E. Glendening, M. Gutowski,
   A. C. Hess, J. Jaffe, B. G. Johnson, J. Ju, R. Kobayashi, R. Kutteh, Z. Lin,
   R. Littlefield, X. Long, B. Meng, T. Nakajima, S. Niu, L. Pollack, M. Rosing,
   K. Glaesemann, G. Sandrone, M. Stave, H. Taylor, G. Thomas, J. H. van Lenthe,
                               A. T. Wong, Z. Zhang.

 Total times  cpu:       79.9s     wall:       93.3s
