 argument  1 = /home/aditisingh4812/nw_chem/nwchem-run/nwchem-run/tddft/open/open_atom/geom-MOL/li.nw
                                         
                                         


             Northwest Computational Chemistry Package (NWChem) 7.2.3
             --------------------------------------------------------


                    Environmental Molecular Sciences Laboratory
                       Pacific Northwest National Laboratory
                                Richland, WA 99352

                              Copyright (c) 1994-2022
                       Pacific Northwest National Laboratory
                            Battelle Memorial Institute

             NWChem is an open-source computational chemistry package
                        distributed under the terms of the
                      Educational Community License (ECL) 2.0
             A copy of the license is included with this distribution
                              in the LICENSE.TXT file

                                  ACKNOWLEDGMENT
                                  --------------

            This software and its documentation were developed at the
            EMSL at Pacific Northwest National Laboratory, a multiprogram
            national laboratory, operated for the U.S. Department of Energy
            by Battelle under Contract Number DE-AC05-76RL01830. Support
            for this work was provided by the Department of Energy Office
            of Biological and Environmental Research, Office of Basic
            Energy Sciences, and the Office of Advanced Scientific Computing.


           Job information
           ---------------

    hostname        = p17
    program         = /home/aditisingh4812/nw_chem/nwchem-7.2.3-release.revision-d690e065-srconly.2024-08-27/nwchem-7.2.3/bin/LINUX64/nwchem
    date            = Thu May  8 11:53:13 2025

    compiled        = Mon_Apr_07_18:51:54_2025
    source          = /home/aditisingh4812/nw_chem/nwchem-7.2.3-release.revision-d690e065-srconly.2024-08-27/nwchem-7.2.3
    nwchem branch   = 7.2.3
    nwchem revision = d690e065
    ga revision     = 5.8.0
    use scalapack   = F
    input           = /home/aditisingh4812/nw_chem/nwchem-run/nwchem-run/tddft/open/open_atom/geom-MOL/li.nw
    prefix          = li.
    data base       = ./li.db
    status          = startup
    nproc           =        8
    time left       =     -1s



           Memory information
           ------------------

    heap     = 2621439998 doubles =  20000.0 Mbytes
    stack    = 2621439995 doubles =  20000.0 Mbytes
    global   = 6553600000 doubles =  50000.0 Mbytes (distinct from heap & stack)
    total    = ********** doubles =  90000.0 Mbytes
    verify   = yes
    hardfail = no 


           Directory information
           ---------------------

  0 permanent = .
  0 scratch   = .




                                NWChem Input Module
                                -------------------



 Scaling coordinates for geometry "geometry" by  1.889725989
 (inverse scale =  0.529177249)



                             Geometry "geometry" -> ""
                             -------------------------

 Output coordinates in angstroms (scale by  1.889725989 to convert to a.u.)

  No.       Tag          Charge          X              Y              Z
 ---- ---------------- ---------- -------------- -------------- --------------
    1 Li                   3.0000     0.00000000     0.00000000     0.00000000

      Atomic Mass 
      ----------- 

      Li                 7.016000


 Effective nuclear repulsion energy (a.u.)       0.0000000000

            Nuclear Dipole moment (a.u.) 
            ----------------------------
        X                 Y               Z
 ---------------- ---------------- ----------------
     0.0000000000     0.0000000000     0.0000000000


            XYZ format geometry
            -------------------
     1
 geometry
 Li                    0.00000000     0.00000000     0.00000000



 Summary of "ao basis" -> "" (cartesian)
 ------------------------------------------------------------------------------
       Tag                 Description            Shells   Functions and Types
 ---------------- ------------------------------  ------  ---------------------
 *                        aug-cc-pVTZ                 on all atoms 


  pbe96 is a nonlocal functional; adding pw91lda local functional. 

                                 NWChem DFT Module
                                 -----------------


                      Basis "ao basis" -> "ao basis" (cartesian)
                      -----
  Li (Lithium)
  ------------
            Exponent  Coefficients 
       -------------- ---------------------------------------------------------
  1 S  5.98800000E+03  0.000133
  1 S  8.98900000E+02  0.001025
  1 S  2.05900000E+02  0.005272
  1 S  5.92400000E+01  0.020929
  1 S  1.98700000E+01  0.066340
  1 S  7.40600000E+00  0.165775
  1 S  2.93000000E+00  0.315038
  1 S  1.18900000E+00  0.393523
  1 S  4.79800000E-01  0.190870

  2 S  5.98800000E+03 -0.000021
  2 S  8.98900000E+02 -0.000161
  2 S  2.05900000E+02 -0.000820
  2 S  5.92400000E+01 -0.003326
  2 S  1.98700000E+01 -0.010519
  2 S  7.40600000E+00 -0.028097
  2 S  2.93000000E+00 -0.055936
  2 S  1.18900000E+00 -0.099237
  2 S  4.79800000E-01 -0.112189

  3 S  7.50900000E-02  1.000000

  4 S  2.83200000E-02  1.000000

  5 S  7.60000000E-03  1.000000

  6 P  3.26600000E+00  0.008630
  6 P  6.51100000E-01  0.047538
  6 P  1.69600000E-01  0.209772

  7 P  5.57800000E-02  1.000000

  8 P  2.05000000E-02  1.000000

  9 P  9.10000000E-03  1.000000

 10 D  1.87400000E-01  1.000000

 11 D  8.01000000E-02  1.000000

 12 D  3.71000000E-02  1.000000

 13 F  1.82900000E-01  1.000000

 14 F  8.16000000E-02  1.000000



 Summary of "ao basis" -> "ao basis" (cartesian)
 ------------------------------------------------------------------------------
       Tag                 Description            Shells   Functions and Types
 ---------------- ------------------------------  ------  ---------------------
 Li                       aug-cc-pVTZ               14       55   5s4p3d2f




 Summary of "ao basis" -> "ao basis" (cartesian)
 ------------------------------------------------------------------------------
       Tag                 Description            Shells   Functions and Types
 ---------------- ------------------------------  ------  ---------------------
 Li                       aug-cc-pVTZ               14       55   5s4p3d2f




                         Geometry "geometry" -> "geometry"
                         ---------------------------------

 Output coordinates in angstroms (scale by  1.889725989 to convert to a.u.)

  No.       Tag          Charge          X              Y              Z
 ---- ---------------- ---------- -------------- -------------- --------------
    1 Li                   3.0000     0.00000000     0.00000000     0.00000000

      Atomic Mass 
      ----------- 

      Li                 7.016000


 Effective nuclear repulsion energy (a.u.)       0.0000000000

            Nuclear Dipole moment (a.u.) 
            ----------------------------
        X                 Y               Z
 ---------------- ---------------- ----------------
     0.0000000000     0.0000000000     0.0000000000


                      Basis "ao basis" -> "ao basis" (cartesian)
                      -----
  Li (Lithium)
  ------------
            Exponent  Coefficients 
       -------------- ---------------------------------------------------------
  1 S  5.98800000E+03  0.064619
  1 S  8.98900000E+02  0.120104
  1 S  2.05900000E+02  0.204535
  1 S  5.92400000E+01  0.318977
  1 S  1.98700000E+01  0.445628
  1 S  7.40600000E+00  0.531197
  1 S  2.93000000E+00  0.503573
  1 S  1.18900000E+00  0.319820
  1 S  4.79800000E-01  0.078538

  2 S  5.98800000E+03 -0.037675
  2 S  8.98900000E+02 -0.069659
  2 S  2.05900000E+02 -0.117469
  2 S  5.92400000E+01 -0.187176
  2 S  1.98700000E+01 -0.260910
  2 S  7.40600000E+00 -0.332441
  2 S  2.93000000E+00 -0.330149
  2 S  1.18900000E+00 -0.297802
  2 S  4.79800000E-01 -0.170456

  3 S  7.50900000E-02  0.102234

  4 S  2.83200000E-02  0.049202

  5 S  7.60000000E-03  0.018345

  6 P  3.26600000E+00  0.222451
  6 P  6.51100000E-01  0.163232
  6 P  1.69600000E-01  0.134040

  7 P  5.57800000E-02  0.038640

  8 P  2.05000000E-02  0.011057

  9 P  9.10000000E-03  0.004006

 10 D  1.87400000E-01  0.087853

 11 D  8.01000000E-02  0.019850

 12 D  3.71000000E-02  0.005162

 13 F  1.82900000E-01  0.032206

 14 F  8.16000000E-02  0.005239



    Basis function labels
    ---------------------
       No.  Atm El Type
       ---  --- -- ----
        1    1 Li s          
        2    1 Li s          
        3    1 Li s          
        4    1 Li s          
        5    1 Li s          
        6    1 Li px         
        7    1 Li py         
        8    1 Li pz         
        9    1 Li px         
       10    1 Li py         
       11    1 Li pz         
       12    1 Li px         
       13    1 Li py         
       14    1 Li pz         
       15    1 Li px         
       16    1 Li py         
       17    1 Li pz         
       18    1 Li dxx        
       19    1 Li dxy        
       20    1 Li dxz        
       21    1 Li dyy        
       22    1 Li dyz        
       23    1 Li dzz        
       24    1 Li dxx        
       25    1 Li dxy        
       26    1 Li dxz        
       27    1 Li dyy        
       28    1 Li dyz        
       29    1 Li dzz        
       30    1 Li dxx        
       31    1 Li dxy        
       32    1 Li dxz        
       33    1 Li dyy        
       34    1 Li dyz        
       35    1 Li dzz        
       36    1 Li fxxx       
       37    1 Li fxxy       
       38    1 Li fxxz       
       39    1 Li fxyy       
       40    1 Li fxyz       
       41    1 Li fxzz       
       42    1 Li fyyy       
       43    1 Li fyyz       
       44    1 Li fyzz       
       45    1 Li fzzz       
       46    1 Li fxxx       
       47    1 Li fxxy       
       48    1 Li fxxz       
       49    1 Li fxyy       
       50    1 Li fxyz       
       51    1 Li fxzz       
       52    1 Li fyyy       
       53    1 Li fyyz       
       54    1 Li fyzz       
       55    1 Li fzzz       
  int_init: cando_txs set to always be  F

 Schwarz integral screening summary 
 ---------------------------------- 

        No. of atom pairs =       1
       No. of shell pairs =     105

 Atomic screening 

   value      no.     value      no.     value      no.     value      no.   
  -------- ------    -------- ------    -------- ------    -------- ------   
  0.00D+00      0    1.00D-13      0    1.00D-12      0    1.00D-11      0
  1.00D-10      0    1.00D-09      0    1.00D-08      0    1.00D-07      0
  1.00D-06      0    1.00D-05      0    1.00D-04      0    1.00D-03      0
  1.00D-02      0    1.00D-01      0    1.00D+00      1    1.00D+01      0


 Shell screening 

   value      no.     value      no.     value      no.     value      no.   
  -------- ------    -------- ------    -------- ------    -------- ------   
  0.00D+00      0    1.00D-13      0    1.00D-12      0    1.00D-11      0
  1.00D-10      0    1.00D-09      0    1.00D-08      0    1.00D-07      0
  1.00D-06      0    1.00D-05      0    1.00D-04      0    1.00D-03      0
  1.00D-02      9    1.00D-01     47    1.00D+00     49    1.00D+01      0


  Caching 1-el integrals 
  atom                     1  - neighbor  & S                     1   10.000000000000000       exp AB    7.6000000000000061E-003   7.6000000000000061E-003
 zmins =     0.007600000    0.007600000 lprod =   0 range =        35.23 acc   0.10D-06
 sh     0.000000000
  Center:                     1  Radial Pts. & Wghts. 
    1        0.000030636           8.6262946E-14
    2        0.000245092           2.2084178E-11
    3        0.000827206           5.6605343E-10
    4        0.001960886           5.6553192E-09
    5        0.003830182           3.3719824E-08
    6        0.006619396           1.4506285E-07
    7        0.010513222           4.9824041E-07
    8        0.015696915           1.4513933E-06
    9        0.022356496           3.7284880E-06
   10        0.030678982           8.6746468E-06
   11        0.040852663           1.8629404E-05
   12        0.053067396           3.7451973E-05
   13        0.067514950           7.1238617E-05
   14        0.084389379           1.2927927E-04
   15        0.103887439           2.2530877E-04
   16        0.126209047           3.7911811E-04
   17        0.151557783           6.1860285E-04
   18        0.180141439           9.8234034E-04
   19        0.212172630           1.5228050E-03
   20        0.247869448           2.3103524E-03
   21        0.287456194           3.4381284E-03
   22        0.331164167           5.0280937E-03
   23        0.379232540           7.2383911E-03
   24        0.431909319           1.0272336E-02
   25        0.489452398           1.4389365E-02
   26        0.552130723           1.9918368E-02
   27        0.620225583           2.7273895E-02
   28        0.694032037           3.6975892E-02
   29        0.773860500           4.9673722E-02
   30        0.860038516           6.6175456E-02
   31        0.952912733           8.7483627E-02
   32        1.052851125           1.1483898E-01
   33        1.160245486           1.4977409E-01
   34        1.275514251           1.9417932E-01
   35        1.399105688           2.5038412E-01
   36        1.531501534           3.2125757E-01
   37        1.673221141           4.1033331E-01
   38        1.824826232           5.2196518E-01
   39        1.986926379           6.6152222E-01
   40        2.160185338           8.3563382E-01
   41        2.345328407           1.0524999E+00
   42        2.543151029           1.3222852E+00
   43        2.754528880           1.6576237E+00
   44        2.980429796           2.0742679E+00
   45        3.221927925           2.5919312E+00
   46        3.480220652           3.2353876E+00
   47        3.756648968           4.0359207E+00
   48        4.052722158           5.0332499E+00
   49        4.370147977           6.2781139E+00
   50        4.710869829           7.8357767E+00
   51        5.077113017           9.7908359E+00
   52        5.471442850           1.2253906E+01
   53        5.896838467           1.5371035E+01
   54        6.356787763           1.9337183E+01
   55        6.855411120           2.4415848E+01
   56        7.397625109           3.0968186E+01
   57        7.989362743           3.9497193E+01
   58        8.637875477           5.0716347E+01
   59        9.352156330           6.5659324E+01
   60       10.143547534           8.5861014E+01
   61       11.026638602           1.1366758E+02
   62       12.020639173           1.5279139E+02
   63       13.151563829           2.0935783E+02
   64       14.455883488           2.9401073E+02
   65       15.987010567           4.2650003E+02
   66       17.827750489           6.4676367E+02
   67       20.116824594           1.0456763E+03
   68       23.114286035           1.8690851E+03
   69       27.403961954           4.0001645E+03
   70       34.848795829           1.3127883E+04
     irreducible set of Lebedev Angular points ;
  0.009523809523810  1.000000000000000  0.000000000000000  0.000000000000000
  0.032142857142857  0.577350269189626  0.577350269189626  0.577350269189626
  0.028571428571429  0.459700843380983  0.000000000000000  0.888073833977115
   total no. of   reducible points:  38; test:  1.00000000
  0.012698412698413  1.000000000000000  0.000000000000000  0.000000000000000
  0.022574955908289  0.707106781186547  0.707106781186547  0.000000000000000
  0.021093750000000  0.577350269189626  0.577350269189626  0.577350269189626
  0.020173335537919  0.301511344577764  0.301511344577764  0.904534033733291
   total no. of   reducible points:  50; test:  1.00000000
  0.000513067179734  1.000000000000000  0.000000000000000  0.000000000000000
  0.016604069565742  0.707106781186547  0.707106781186547  0.000000000000000
 -0.029586038961039  0.577350269189626  0.577350269189626  0.577350269189626
  0.026576207082159  0.480384461415261  0.480384461415261  0.733799385705343
  0.016522170993716  0.320772648980776  0.000000000000000  0.947156221362588
   total no. of   reducible points:  74; test:  1.00000000
  0.011544011544012  1.000000000000000  0.000000000000000  0.000000000000000
  0.011943909085856  0.577350269189626  0.577350269189626  0.577350269189626
  0.011110555710603  0.369602846454150  0.369602846454150  0.852518311701268
  0.011876501294537  0.694354006602666  0.694354006602666  0.189063552885395
  0.011812303746904  0.374243039090341  0.000000000000000  0.927330657151172
   total no. of   reducible points:  86; test:  1.00000000
  0.003828270494937  1.000000000000000  0.000000000000000  0.000000000000000
  0.009793737512488  0.577350269189626  0.577350269189626  0.577350269189626
  0.008211737283191  0.185115635344736  0.185115635344736  0.965124035086594
  0.009942814891178  0.690421048382292  0.690421048382292  0.215957291845848
  0.009595471336071  0.395689473055942  0.395689473055942  0.828769981252592
  0.009694996361663  0.478369028812150  0.000000000000000  0.878158910604066
   total no. of   reducible points: 110; test:  1.00000000
  0.000599631368862  1.000000000000000  0.000000000000000  0.000000000000000
  0.007372999718621  0.707106781186547  0.707106781186547  0.000000000000000
  0.007210515360144  0.577350269189626  0.577350269189626  0.577350269189626
  0.007116355493118  0.676441040011426  0.676441040011426  0.291298882209527
  0.006753829486314  0.417496122796545  0.417496122796545  0.807089818359583
  0.007574394159054  0.157467667203908  0.157467667203908  0.974888643677173
  0.006991087353303  0.140355381171318  0.449332832326956  0.882270011260323
   total no. of   reducible points: 146; test:  1.00000000
  0.005544842902037  1.000000000000000  0.000000000000000  0.000000000000000
  0.006071332770671  0.707106781186547  0.707106781186547  0.000000000000000
  0.006383674773515  0.577350269189626  0.577350269189626  0.577350269189626
  0.005183387587748  0.255125262111413  0.255125262111413  0.932642590312691
  0.006317929009814  0.674360146036277  0.674360146036277  0.300793595137701
  0.006201670006589  0.431891069671941  0.431891069671941  0.791795559393492
  0.005477143385137  0.261393136033599  0.000000000000000  0.965232421976448
  0.005968383987681  0.499045316179604  0.144663074432512  0.854415804684659
   total no. of   reducible points: 170; test:  1.00000000
  0.001782340447245  1.000000000000000  0.000000000000000  0.000000000000000
  0.005716905949977  0.707106781186547  0.707106781186547  0.000000000000000
  0.005573383178849  0.577350269189626  0.577350269189626  0.577350269189626
  0.005608704082588  0.671297344269523  0.671297344269523  0.314196994182586
  0.005158237711805  0.289246562757544  0.289246562757544  0.912509096867474
  0.005518771467274  0.444693317871744  0.444693317871744  0.777493219314767
  0.004106777028169  0.129933544765007  0.129933544765007  0.982972302707253
  0.005051846064615  0.345770219761128  0.000000000000000  0.938319218137592
  0.005530248916233  0.159041710538353  0.836036015482459  0.525118572443642
   total no. of   reducible points: 194; test:  1.00000000
 -0.055226399197273  1.000000000000000  0.000000000000000  0.000000000000000
  0.004450274607445  0.577350269189626  0.577350269189626  0.577350269189626
  0.004496841067921  0.449204468739761  0.449204468739761  0.772289253148364
  0.005049153450479  0.252041949021020  0.252041949021020  0.934317778845812
  0.003976408018052  0.698190665844724  0.698190665844724  0.158302205463478
  0.004401400650381  0.658740524346096  0.658740524346096  0.363485684956727
  0.017245443505444  0.040385440500977  0.040385440500977  0.998367683967727
  0.004231083095357  0.582384230971558  0.000000000000000  0.812913653173365
  0.005198069864064  0.354587739051869  0.000000000000000  0.935022745880593
  0.004695720972569  0.227218180899819  0.486466153588665  0.843636521068894
   total no. of   reducible points: 230; test:  1.00000000
 -0.001313769127327  1.000000000000000  0.000000000000000  0.000000000000000
 -0.002522728704859  0.707106781186547  0.707106781186547  0.000000000000000
  0.004186853881701  0.577350269189626  0.577350269189626  0.577350269189626
  0.005315167977811  0.703937339158548  0.703937339158548  0.094575076403713
  0.004047142377086  0.101252624857241  0.101252624857241  0.989694807462905
  0.004112482394407  0.464744872642054  0.464744872642054  0.753673939250816
  0.003595584899759  0.327742065497163  0.327742065497163  0.886098344997499
  0.004256131351428  0.662033866369997  0.662033866369997  0.351315128564633
  0.004229582700647  0.850650808352040  0.000000000000000  0.525731112119134
  0.004080914225781  0.323348454269290  0.115311201100970  0.939227929749916
  0.004071467593831  0.231479015871260  0.524493924092236  0.819343388819120
   total no. of   reducible points: 266; test:  1.00000000
  0.000854591172513  1.000000000000000  0.000000000000000  0.000000000000000
  0.003599119285026  0.577350269189626  0.577350269189626  0.577350269189626
  0.003449788424306  0.351564034557011  0.351564034557011  0.867643624544083
  0.003604822601420  0.656632941021961  0.656632941021961  0.371034178384821
  0.003576729661743  0.472905413258100  0.472905413258100  0.743452042987556
  0.002352101413689  0.096183085226148  0.096183085226148  0.990705621379408
  0.003108953122414  0.221964523629418  0.221964523629418  0.949454317226443
  0.003650045807677  0.701176641608955  0.701176641608955  0.129238672710514
  0.002982344963172  0.264415288706066  0.000000000000000  0.964408914879206
  0.003600820932216  0.571895589187896  0.000000000000000  0.820326419827759
  0.003571540554273  0.251003475177047  0.800072749407395  0.544867737258077
  0.003392312205006  0.123354853258333  0.412772408316853  0.902442529533000
   total no. of   reducible points: 302; test:  1.00000000
  0.003006796749454  1.000000000000000  0.000000000000000  0.000000000000000
  0.003050627745651  0.577350269189626  0.577350269189626  0.577350269189626
  0.001621104600289  0.706896546391232  0.706896546391232  0.024383301669356
  0.003005701484902  0.479468262571203  0.479468262571203  0.734996850587746
  0.002990992529654  0.192753315487802  0.192753315487802  0.962129055136014
  0.002982170644108  0.693035796132712  0.693035796132712  0.198501311223365
  0.002721564237311  0.360830211552009  0.360830211552009  0.860001812127547
  0.003033513795811  0.649848616149617  0.649848616149617  0.394199888605839
  0.003007949555219  0.193294501323034  0.000000000000000  0.981140782843257
  0.002881964603055  0.380049491989930  0.000000000000000  0.924966152698679
  0.002958357626536  0.289955882549957  0.793453785658232  0.535123047718276
  0.003036020026407  0.096841214551040  0.828080150668686  0.552182074349399
  0.002832187403926  0.183343464704166  0.907465826530513  0.378009189874487
   total no. of   reducible points: 350; test:  1.00000000
  0.000526589796822  1.000000000000000  0.000000000000000  0.000000000000000
  0.002548219972003  0.707106781186547  0.707106781186547  0.000000000000000
  0.002512317418927  0.577350269189626  0.577350269189626  0.577350269189626
  0.002530403801186  0.690934630750911  0.690934630750911  0.212646824707552
  0.002014279020919  0.177483605460916  0.177483605460916  0.967987158791473
  0.002501725168403  0.491434263778475  0.491434263778475  0.719016501040843
  0.002513267174598  0.645666470742426  0.645666470742426  0.407712664897770
  0.002302694782227  0.286128901030764  0.286128901030764  0.914472801120872
  0.001462495621595  0.075680843671780  0.075680843671780  0.994255912631278
  0.002445373437313  0.392725976336800  0.392725976336800  0.831584400419232
  0.002417442375639  0.881813287779429  0.000000000000000  0.471598691151316
  0.001910951282180  0.977642811118265  0.000000000000000  0.210272522857307
  0.002416930044325  0.205482369640304  0.868946032287241  0.450233038258263
  0.002512236854563  0.590515704892527  0.799927854385729  0.106801826075805
  0.002496644054553  0.555015236107681  0.771746262691590  0.310428403516654
  0.002236607760438  0.937180985855372  0.334436314534346  0.099217696364292
   total no. of   reducible points: 434; test:  1.00000000
  0.000309512129531  1.000000000000000  0.000000000000000  0.000000000000000
  0.001852379698597  0.577350269189626  0.577350269189626  0.577350269189626
  0.001871790639278  0.704095493822747  0.704095493822747  0.092190407076898
  0.001858812585438  0.680774406645524  0.680774406645524  0.270356088359165
  0.001852028828296  0.637254693925875  0.637254693925875  0.433373868777154
  0.001846715956151  0.504441970780036  0.504441970780036  0.700768575373573
  0.001818471778163  0.421576178401097  0.421576178401097  0.802836877335274
  0.001749564657281  0.331792073647212  0.331792073647212  0.883078727934133
  0.001617210647254  0.238473670142189  0.238473670142189  0.941414158220403
  0.001384737234852  0.145903644915776  0.145903644915776  0.978480583762694
  0.000976433116505  0.060950341155072  0.060950341155072  0.996278129754016
  0.001857161196774  0.611684344200988  0.000000000000000  0.791101929626902
  0.001705153996396  0.396475534819986  0.000000000000000  0.918045287711454
  0.001300321685886  0.172478200990772  0.000000000000000  0.985013335028002
  0.001842866472905  0.561026380862206  0.351828092773352  0.749310611904116
  0.001802658934377  0.474239284255198  0.263471665593795  0.840047488359050
  0.001849830560444  0.598412649788538  0.181664084036021  0.780320742479920
  0.001713904507107  0.379103540769556  0.172079522565688  0.909213475092374
  0.001555213603397  0.277867319058624  0.082130215819325  0.957102074310073
  0.001802239128009  0.503356427107512  0.089992058420749  0.859379855890721
   total no. of   reducible points: 590; test:  1.00000000
  qrot: 

              1        2        3      
    1    1.0000   0.0000   0.0000
    2    0.0000   1.0000   0.0000
    3    0.0000   0.0000   1.0000
  me                     0   done genpts
  me                     1   done genpts
  me                     2   done genpts
  me                     3   done genpts
  me                     4   done genpts
  me                     5   done genpts
  me                     6   done genpts
  me                     7   done genpts
  me                     0   done uprt
  me                     1   done uprt
  me                     2   done uprt
  me                     3   done uprt
  me                     4   done uprt
  me                     5   done uprt
  me                     6   done uprt
  me                     7   done uprt
  me                     0  done mem
  me                     1  done mem
  me                     2  done mem
  me                     3  done mem
  me                     4  done mem
  me                     5  done mem
  me                     6  done mem
  me                     7  done mem
  dftinpanae: itol2e                     8  iaoacc                    14  tol_rho    1.0000000000000000E-010

            General Information
            -------------------
          SCF calculation type: DFT
          Wavefunction type:  spin polarized.
          No. of atoms     :     1
          No. of electrons :     3
           Alpha electrons :     2
            Beta electrons :     1
          Charge           :     0
          Spin multiplicity:     2
          Use of symmetry is: off; symmetry adaption is: off
          Maximum number of iterations:  50
          AO basis - number of functions:    55
                     number of shells:    14
          Convergence on energy requested:  1.00D-06
          Convergence on density requested:  1.00D-05
          Convergence on gradient requested:  5.00D-04

              XC Information
              --------------
                     Hartree-Fock (Exact) Exchange  1.000          
                     LC-wPBE(h)Exchange Functional  1.000          
            Perdew 1991 LDA Correlation Functional  1.000 local    
           PerdewBurkeErnz. Correlation Functional  1.000 non-local

           Range-Separation Parameters        
           ---------------------------
           Alpha           :  0.00
           Beta            :  1.00
           Gamma           :  0.26
           Short-Range HF  :     F

             Grid Information
             ----------------
          Grid used for XC integration:  fine      
          Radial quadrature: Mura-Knowles        
          Angular quadrature: Lebedev. 
          Tag              B.-S. Rad. Rad. Pts. Rad. Cut. Ang. Pts.
          ---              ---------- --------- --------- ---------
          Li                  1.45       70          19.0       590
          Grid pruning is: on 
          Number of quadrature shells:    70
          Spatial weights used:  Erf1

          Convergence Information
          -----------------------
          Convergence aids based upon iterative change in 
          total energy or number of iterations. 
          Levelshifting, if invoked, occurs when the 
          HOMO/LUMO gap drops below (HL_TOL):  1.00D-02
          DIIS, if invoked, will attempt to extrapolate 
          using up to (NFOCK): 10 stored Fock matrices.

                    Damping( 0%)  Levelshifting(0.5)       DIIS
                  --------------- ------------------- ---------------
          dE  on:    start            ASAP                start   
          dE off:    2 iters         50 iters            50 iters 


      Screening Tolerance Information
      -------------------------------
          Density screening/tol_rho:  1.00D-10
          AO Gaussian exp screening on grid/accAOfunc:  14
          CD Gaussian exp screening on grid/accCDfunc:  20
          XC Gaussian exp screening on grid/accXCfunc:  20
          Schwarz screening/accCoul:  1.00D-08



                         Geometry "geometry" -> "geometry"
                         ---------------------------------

 Output coordinates in angstroms (scale by  1.889725989 to convert to a.u.)

  No.       Tag          Charge          X              Y              Z
 ---- ---------------- ---------- -------------- -------------- --------------
    1 Li                   3.0000     0.00000000     0.00000000     0.00000000

      Atomic Mass 
      ----------- 

      Li                 7.016000


 Effective nuclear repulsion energy (a.u.)       0.0000000000

            Nuclear Dipole moment (a.u.) 
            ----------------------------
        X                 Y               Z
 ---------------- ---------------- ----------------
     0.0000000000     0.0000000000     0.0000000000

  
  CAM type calculations without CDFIT are
  only available with the direct option.
  Forcing Direct SCF
  


     <<<<<<    Before call to DFT_SCF.    >>>>>>
     <<<<<< date:  May  8  time: 11:53:13 >>>>>>


 Setting tolerance for linear dependence to 1.00D-05

 Setting tolerance for linear dependence to 1.00D-05


 Setting tolerance for linear dependence to 1.00D-05

 Setting tolerance for linear dependence to 1.00D-05

 Setting tolerance for linear dependence to 1.00D-05

 Setting tolerance for linear dependence to 1.00D-05

 Setting tolerance for linear dependence to 1.00D-05
 Setting tolerance for linear dependence to 1.00D-05
  lindep tolerance =    1.0000000000000001E-005
  lindep tolerance =    1.0000000000000001E-005
  lindep tolerance =    1.0000000000000001E-005
  lindep tolerance =    1.0000000000000001E-005
  lindep tolerance =    1.0000000000000001E-005
  lindep tolerance =    1.0000000000000001E-005
  lindep tolerance =    1.0000000000000001E-005
  lindep tolerance =    1.0000000000000001E-005


     <<<<<<    Before 3c-2e initialize.   >>>>>>
     <<<<<< date:  May  8  time: 11:53:13 >>>>>>


 Setting fock-build task_bf   :      -1
                    maxquartet:   10000
                    maxeri    :  129600
                    maxscr    :       0
                    intacc    : 0.0D+00
                    denscreen : T
                    dentol    : 1.0D-06


      Superposition of Atomic Density Guess
      -------------------------------------

 Sum of atomic energies:          -7.43268205

      Non-variational initial energy
      ------------------------------

 Total energy =      -7.374202
 1-e energy   =      -9.713457
 2-e energy   =       2.339255
 HOMO         =      -0.082264
 LUMO         =       0.016499


 Setting fock-build task_bf   :      -1
                    maxquartet:   10000
                    maxeri    :  129600
                    maxscr    :       0
                    intacc    : 0.0D+00
                    denscreen : T
                    dentol    : 1.0D-06


 Wrote molecular orbitals to ./li.movecs

  WARNING: movecs_in_org=atomic not equal to movecs_in=./li.movecs
   Time after variat. SCF:      0.3

 Setting fock-build task_bf   :      -1
                    maxquartet:   10000
                    maxeri    :  129600
                    maxscr    :       0
                    intacc    : 0.0D+00
                    denscreen : T
                    dentol    : 1.0D-06

   Time prior to 1st pass:      0.3


     <<<<<<      Before SCF iter loop.    >>>>>>
     <<<<<< date:  May  8  time: 11:53:14 >>>>>>

           DAMPING=T LEVELSHIFTING=F DIISING=T
          itol2e= 8 iAOacc=12 iXCacc=20


     <<<<<<            calling 1-e int    >>>>>>
     <<<<<< date:  May  8  time: 11:53:14 >>>>>>

    Kinetic Matrix Time:          0.0s

           Kinetic energy =      7.386956757029

    Potential Matrix Time:          0.0s


     <<<<<<    Before call to GETVXC.     >>>>>>
     <<<<<< date:  May  8  time: 11:53:14 >>>>>>



     <<<<<<    Before call to fock_2e.    >>>>>>
     <<<<<< date:  May  8  time: 11:53:14 >>>>>>



     <<<<<<     After call to fock_2e.    >>>>>>
     <<<<<< date:  May  8  time: 11:53:14 >>>>>>

    Fock_2e Build Time:          0.0s
  *** grid_quadv0:                    calc_type:                    1
  *** grid_quadv0:                    grid_written: F
  *** grid_quadv0:                    grad: T
  *** grid_quadv0:                    kske: F
  *** grid_quadv0:                    kslap: F
  *** grid_quadv0:                    calc_type:                    1
  *** grid_quadv0:                    grid_written: F
  *** grid_quadv0:                    grad: T
  *** grid_quadv0:                    kske: F
  *** grid_quadv0:                    kslap: F
  *** grid_quadv0:                    do_scf: T
  *** grid_quadv0:                    fde_option:                    0
  *** grid_quadv0:                    n_per_rec:                 3070
  *** grid_quadv0:                    do_scf: T
  *** grid_quadv0:                    fde_option:                    0
  *** grid_quadv0:                    n_per_rec:                 3070
  *** grid_quadv0:                    calc_type:                    1
  *** grid_quadv0:                    grid_written: F
  *** grid_quadv0:                    grad: T
  *** grid_quadv0:                    calc_type:                    1
  *** grid_quadv0:                    grid_written: F
  *** grid_quadv0:                    grad: T
  *** grid_quadv0:                    kske: F
  *** grid_quadv0:                    kslap: F
  *** grid_quadv0:                    do_scf: T
  *** grid_quadv0:                    fde_option:                    0
  *** grid_quadv0:                    n_per_rec:                 3070
  *** grid_quadv0:                    calc_type:                    1
  *** grid_quadv0:                    grid_written: F
  *** grid_quadv0:                    grad: T
  *** grid_quadv0:                    kske: F
  *** grid_quadv0:                    kslap: F
  *** grid_quadv0:                    do_scf: T
  *** grid_quadv0:                    fde_option:                    0
  *** grid_quadv0:                    n_per_rec:                 3070
  *** grid_quadv0:                    calc_type:                    1
  *** grid_quadv0:                    grid_written: F
  *** grid_quadv0:                    grad: T
  *** grid_quadv0:                    kske: F
  *** grid_quadv0:                    kslap: F
  *** grid_quadv0:                    do_scf: T
  *** grid_quadv0:                    fde_option:                    0
  *** grid_quadv0:                    n_per_rec:                 3070
  *** grid_quadv0:                    calc_type:                    1
  *** grid_quadv0:                    grid_written: F
  *** grid_quadv0:                    grad: T
  *** grid_quadv0:                    kske: F
  *** grid_quadv0:                    kslap: F
  *** grid_quadv0:                    do_scf: T
  *** grid_quadv0:                    fde_option:                    0
  *** grid_quadv0:                    n_per_rec:                 3070
  *** grid_quadv0:                    calc_type:                    1
  *** grid_quadv0:                    grid_written: F
  *** grid_quadv0:                    grad: T
  *** grid_quadv0:                    kske: F
  *** grid_quadv0:                    kslap: F
  *** grid_quadv0:                    do_scf: T
  *** grid_quadv0:                    fde_option:                    0
  *** grid_quadv0:                    n_per_rec:                 3070
  *** grid_quadv0:                    kske: F
  *** grid_quadv0:                    kslap: F
  *** grid_quadv0:                    do_scf: T
  *** grid_quadv0:                    fde_option:                    0
  *** grid_quadv0:                    n_per_rec:                 3070
   0: nuse=   8 avail= 12500000Mb on .
   1: nuse=   8 avail= 12500000Mb on .
   2: nuse=   8 avail= 12500000Mb on .
   3: nuse=   8 avail= 12500000Mb on .
   4: nuse=   8 avail= 12500000Mb on .
   5: nuse=   8 avail= 12500000Mb on .
   6: nuse=   8 avail= 12500000Mb on .
   7: nuse=   8 avail= 12500000Mb on .
 l_cube input   11.00

  atom type   l_cube   no. cubes   segmts   rad   sub
 ----------- -------- ----------- -------- ----- -----
        1     10.00       282         7      35     8

 Grid_pts file          = ./li.gridpts.0
 Record size in doubles =  12289        No. of grid_pts per rec  =   3070
 Max. records in memory =      3        Max. recs in file   = 126656358

 me   0 NQTOTC NQ/cube    3568      32
 me   1 NQTOTC NQ/cube    2652      98
 me   2 NQTOTC NQ/cube    2519      68
 me   3 NQTOTC NQ/cube    2903     100
 me   4 NQTOTC NQ/cube    2145     107
 me   5 NQTOTC NQ/cube    1995      90
 me   6 NQTOTC NQ/cube    2923     265
 me   7 NQTOTC NQ/cube    1787      68

 XC quadr. integrated density :       3.000000 npts:    20200 nctrs:        1

    Fock_xc Build Time:          0.0s


     <<<<<<    Before call to GETVCOUL.   >>>>>>
     <<<<<< date:  May  8  time: 11:53:14 >>>>>>



     <<<<<<    End of parallel region.    >>>>>>
     <<<<<< date:  May  8  time: 11:53:14 >>>>>>

    Total Fock Matrix Build Time:          0.1s
 Etnew, Ecore, Ecoul, Exc(1), Exc(2), Totsic:   -7.4612421830192872       -9.6552651864336525        3.9911191489106663       -1.7970961454963008        0.0000000000000000        0.0000000000000000     
  delta =   -7.4612421830192872     
  delta =   -7.4612421830192872     
  delta =   -7.4612421830192872     
  delta =   -7.4612421830192872     
  delta =   -7.4612421830192872     


         Total DFT energy =       -7.461242183019
      One electron energy =       -9.655265186434
           Coulomb energy =        3.991119148911
    Exchange-Corr. energy =       -1.797096145496
 Nuclear repulsion energy =        0.000000000000

 Numeric. integr. density =        2.999999994324

     Total iterative time =      1.4s




     <<<<<<        calling diis driver    >>>>>>
     <<<<<< date:  May  8  time: 11:53:14 >>>>>>

  delta =   -7.4612421830192872     
  delta =   -7.4612421830192872     
  delta =   -7.4612421830192872     
 nhist                     1  pulay matrix 
   0.0000E+00
  -1.0000E+00   1.0968E-02


     <<<<<<         called diis driver    >>>>>>
     <<<<<< date:  May  8  time: 11:53:14 >>>>>>


 global array: fock transf[1:55,1:55],  handle: -940 

            1           2           3           4           5           6  
       ----------- ----------- ----------- ----------- ----------- -----------
   1       0.89344     0.00000    -0.00000    -0.00000    -0.89618    -0.00000
   2       0.00000     1.70242     0.00000     0.00000     0.00000     0.00000
   3      -0.00000     0.00000     1.70242    -0.00000     0.00000    -0.00000
   4      -0.00000     0.00000    -0.00000     1.70242    -0.00000     0.00000
   5      -0.89618     0.00000     0.00000    -0.00000     5.26812     0.00000
   6      -0.00000     0.00000    -0.00000     0.00000     0.00000     0.70948
   7      -0.00000     0.00000     0.00000     0.00000     0.00000     0.00000
   8      -0.00000     0.00000     0.00000     0.00000     0.00000    -0.00000
   9      -0.00000     0.00000     0.00000     0.00000     0.00000     0.00000
  10       0.08176     0.00000     0.00000     0.00000     1.39899    -0.00000
  11       0.00000    -0.09923     0.02641    -0.10429    -0.00000     0.00000
  12       0.00000     0.05639    -0.10806    -0.08102    -0.00000    -0.00000
  13      -0.00000    -0.09162    -0.09511     0.06309     0.00000     0.00000
  14       0.00000    -0.00000    -0.00000     0.00000     0.00000     0.00000
  15       0.00000    -0.00000     0.00000    -0.00000     0.00000     0.00000
  16       0.00000     0.00000    -0.00000    -0.00000    -0.00000     0.00000
  17       0.00000    -0.00000     0.00000     0.00000     0.00000    -0.00000
  18       0.00000     0.00000     0.00000    -0.00000    -0.00000     0.00000
  19       0.00000    -0.04509    -0.04866    -0.05498     0.00000     0.00000
  20       0.00000     0.01066     0.05950    -0.06140    -0.00000     0.00000
  21       0.00000     0.07264    -0.03893    -0.02512    -0.00000     0.00000
  22       0.17219    -0.00000     0.00000     0.00000    -0.10535     0.00000
  23       0.00000    -0.00000     0.00000     0.00000     0.00000    -0.25906
  24       0.00000    -0.07002    -0.07946    -0.01200     0.00000     0.00000
  25       0.00000     0.07967    -0.07072     0.00341    -0.00000    -0.00000
  26      -0.00000    -0.01050    -0.00673     0.10585     0.00000     0.00000
  27      -0.00000    -0.00000    -0.00000    -0.00000    -0.00000    -0.00000
  28       0.00000     0.00000     0.00000     0.00000    -0.00000    -0.00000
  29      -0.00000    -0.00000    -0.00000    -0.00000     0.00000    -0.00000
  30      -0.00000    -0.00000    -0.00000     0.00000    -0.00000     0.00000
  31       0.00000     0.00000    -0.00000     0.00000     0.00000     0.00000
  32      -0.00000     0.00000     0.00000    -0.00000    -0.00000    -0.00000
  33      -0.00000    -0.01123     0.00911     0.00422     0.00000    -0.00000
  34       0.00000     0.00611     0.01123    -0.00797    -0.00000     0.00000
  35       0.00000    -0.00796    -0.00423    -0.01207     0.00000     0.00000
  36      -0.06916     0.00000    -0.00000    -0.00000    -0.02030    -0.00000
  37      -0.00000     0.00000    -0.00000    -0.00000    -0.00000     0.00000
  38       0.00000    -0.00000     0.00000    -0.00000    -0.00000     0.00000
  39      -0.00000     0.01102    -0.01187     0.00964     0.00000    -0.00000
  40      -0.00000     0.00139    -0.01105    -0.01521    -0.00000    -0.00000
  41       0.00000    -0.01523    -0.00960     0.00558     0.00000    -0.00000
  42       0.00000     0.00000     0.00000     0.00000    -0.00000     0.00000
  43       0.00000     0.00000     0.00000     0.00000    -0.00000     0.00000
  44       0.00000     0.00000     0.00000     0.00000    -0.00000     0.00000
  45       0.01071     0.00000     0.00000     0.00000     0.13142     0.00000
  46       0.00000     0.00606     0.00733    -0.00065    -0.00000    -0.00000
  47      -0.00000     0.00608    -0.00546    -0.00492    -0.00000    -0.00000
  48      -0.00000     0.00416    -0.00271     0.00814     0.00000     0.00000
  49       0.00000     0.00000     0.00000    -0.00000    -0.00000    -0.00000
  50       0.00000     0.00000     0.00000    -0.00000    -0.00000    -0.00000
  51       0.02980    -0.00000    -0.00000     0.00000    -0.26368     0.00000
  52      -0.00000     0.00305    -0.00027     0.00363     0.00000    -0.00000
  53       0.00000     0.00249     0.00361    -0.00183     0.00000    -0.00000
  54      -0.00000    -0.00265     0.00308     0.00246     0.00000     0.00000
  55       0.01165    -0.00000    -0.00000     0.00000    -0.05721     0.00000

            7           8           9          10          11          12  
       ----------- ----------- ----------- ----------- ----------- -----------
   1      -0.00000    -0.00000    -0.00000     0.08176     0.00000     0.00000
   2       0.00000     0.00000     0.00000     0.00000    -0.09923     0.05639
   3       0.00000     0.00000     0.00000     0.00000     0.02641    -0.10806
   4       0.00000     0.00000     0.00000     0.00000    -0.10429    -0.08102
   5       0.00000     0.00000     0.00000     1.39899    -0.00000    -0.00000
   6       0.00000    -0.00000     0.00000    -0.00000     0.00000    -0.00000
   7       0.52103    -0.00000     0.00000    -0.00000    -0.00000    -0.00000
   8      -0.00000     0.52103    -0.00000    -0.00000    -0.00000     0.00000
   9       0.00000    -0.00000     0.52103    -0.00000    -0.00000    -0.00000
  10      -0.00000    -0.00000    -0.00000     1.66514    -0.00000     0.00000
  11      -0.00000    -0.00000    -0.00000    -0.00000     0.59538    -0.00000
  12      -0.00000     0.00000    -0.00000     0.00000    -0.00000     0.59538
  13       0.00000     0.00000    -0.00000    -0.00000    -0.00000     0.00000
  14       0.00000     0.00000    -0.00000     0.00000     0.00000     0.00000
  15       0.00000    -0.00000     0.00000    -0.00000    -0.00000    -0.00000
  16      -0.00000     0.00000     0.00000     0.00000     0.00000    -0.00000
  17       0.00000     0.00000    -0.00000     0.00000    -0.00000    -0.00000
  18      -0.00000     0.00000     0.00000    -0.00000    -0.00000     0.00000
  19       0.00000    -0.00000     0.00000    -0.00000    -0.14789    -0.11884
  20       0.00000     0.00000     0.00000    -0.00000    -0.11464     0.01416
  21       0.00000    -0.00000     0.00000     0.00000     0.09310    -0.17134
  22       0.00000    -0.00000     0.00000    -0.09782     0.00000    -0.00000
  23       0.00000    -0.00000     0.00000    -0.00000    -0.00000    -0.00000
  24       0.00000     0.00000    -0.00000     0.00000     0.08685     0.07987
  25       0.00000     0.00000    -0.00000     0.00000    -0.14420     0.16882
  26       0.00000     0.00000    -0.00000    -0.00000    -0.14486    -0.12017
  27      -0.16877     0.12780    -0.13182    -0.00000     0.00000    -0.00000
  28       0.16597     0.02965    -0.18376     0.00000     0.00000    -0.00000
  29      -0.07850    -0.21209    -0.10512    -0.00000    -0.00000     0.00000
  30       0.00000     0.00000    -0.00000    -0.00000     0.00000     0.00000
  31       0.00000     0.00000     0.00000     0.00000     0.00000    -0.00000
  32      -0.00000     0.00000     0.00000     0.00000    -0.00000    -0.00000
  33      -0.00000     0.00000    -0.00000    -0.00000    -0.03975     0.08513
  34       0.00000     0.00000     0.00000    -0.00000    -0.02263     0.00969
  35       0.00000    -0.00000     0.00000    -0.00000    -0.08415    -0.04282
  36      -0.00000     0.00000    -0.00000    -0.08321     0.00000     0.00000
  37      -0.00000    -0.00000     0.00000     0.00000     0.00000    -0.00000
  38       0.00000     0.00000    -0.00000     0.00000    -0.00000    -0.00000
  39       0.00000     0.00000    -0.00000    -0.00000    -0.03003     0.01398
  40       0.00000     0.00000     0.00000    -0.00000     0.01439     0.03118
  41       0.00000     0.00000     0.00000    -0.00000     0.00841    -0.00340
  42       0.03700    -0.01800     0.00173     0.00000    -0.00000     0.00000
  43       0.00128     0.00652     0.04064     0.00000     0.00000    -0.00000
  44       0.01804     0.03646    -0.00642    -0.00000     0.00000    -0.00000
  45       0.00000     0.00000     0.00000     0.27160    -0.00000    -0.00000
  46       0.00000    -0.00000     0.00000    -0.00000    -0.00253    -0.00296
  47       0.00000     0.00000     0.00000     0.00000    -0.00175     0.00992
  48      -0.00000     0.00000    -0.00000     0.00000    -0.00994    -0.00099
  49      -0.00000    -0.00000     0.00000    -0.00000     0.00000    -0.00000
  50      -0.00000    -0.00000     0.00000    -0.00000    -0.00000    -0.00000
  51       0.00000     0.00000     0.00000    -0.29675     0.00000     0.00000
  52       0.00000     0.00000     0.00000     0.00000    -0.00765    -0.00104
  53       0.00000    -0.00000     0.00000    -0.00000     0.00043    -0.00113
  54      -0.00000    -0.00000    -0.00000    -0.00000     0.00098    -0.00757
  55       0.00000    -0.00000    -0.00000     0.00088    -0.00000     0.00000

           13          14          15          16          17          18  
       ----------- ----------- ----------- ----------- ----------- -----------
   1      -0.00000     0.00000     0.00000     0.00000     0.00000     0.00000
   2      -0.09162    -0.00000    -0.00000     0.00000    -0.00000     0.00000
   3      -0.09511    -0.00000     0.00000    -0.00000     0.00000     0.00000
   4       0.06309     0.00000    -0.00000    -0.00000     0.00000    -0.00000
   5       0.00000     0.00000     0.00000    -0.00000     0.00000    -0.00000
   6       0.00000     0.00000     0.00000     0.00000    -0.00000     0.00000
   7       0.00000     0.00000     0.00000    -0.00000     0.00000    -0.00000
   8       0.00000     0.00000    -0.00000     0.00000     0.00000     0.00000
   9      -0.00000    -0.00000     0.00000     0.00000    -0.00000     0.00000
  10      -0.00000     0.00000    -0.00000     0.00000     0.00000    -0.00000
  11      -0.00000     0.00000    -0.00000     0.00000    -0.00000    -0.00000
  12       0.00000     0.00000    -0.00000    -0.00000    -0.00000     0.00000
  13       0.59538    -0.00000     0.00000     0.00000    -0.00000     0.00000
  14      -0.00000     0.70948     0.00000     0.00000     0.00000     0.00000
  15       0.00000     0.00000     0.70948    -0.00000     0.00000     0.00000
  16       0.00000     0.00000    -0.00000     0.70948    -0.00000     0.00000
  17      -0.00000     0.00000     0.00000    -0.00000     0.52103    -0.00000
  18       0.00000     0.00000     0.00000     0.00000    -0.00000     0.52103
  19      -0.08768     0.00000     0.00000    -0.00000    -0.00000     0.00000
  20       0.17418     0.00000    -0.00000    -0.00000     0.00000    -0.00000
  21       0.07521     0.00000    -0.00000    -0.00000     0.00000     0.00000
  22       0.00000    -0.00000     0.00000     0.00000    -0.00000     0.00000
  23       0.00000     0.00000     0.00000    -0.00000     0.00000    -0.00000
  24       0.18815    -0.00000    -0.00000    -0.00000     0.00000    -0.00000
  25      -0.00510    -0.00000     0.00000     0.00000    -0.00000     0.00000
  26       0.11788     0.00000    -0.00000    -0.00000    -0.00000    -0.00000
  27      -0.00000     0.00000     0.00000     0.00000    -0.00000     0.00000
  28      -0.00000    -0.00000     0.00000     0.00000    -0.00000     0.00000
  29       0.00000     0.00000    -0.00000     0.00000     0.00000    -0.00000
  30      -0.00000     0.14933    -0.14292    -0.15616     0.00000     0.00000
  31       0.00000     0.08985    -0.13025     0.20512     0.00000     0.00000
  32      -0.00000    -0.19167    -0.17240    -0.02551    -0.00000    -0.00000
  33      -0.01863    -0.00000     0.00000     0.00000     0.00000     0.00000
  34       0.09256     0.00000    -0.00000    -0.00000    -0.00000     0.00000
  35      -0.01609     0.00000     0.00000    -0.00000     0.00000     0.00000
  36      -0.00000    -0.00000    -0.00000    -0.00000    -0.00000     0.00000
  37      -0.00000     0.00000    -0.00000     0.00000    -0.23365     0.08720
  38      -0.00000    -0.00000     0.00000    -0.00000     0.08720     0.23365
  39       0.00906     0.00000    -0.00000     0.00000     0.00000    -0.00000
  40      -0.00045    -0.00000     0.00000     0.00000     0.00000    -0.00000
  41       0.03312     0.00000    -0.00000    -0.00000     0.00000     0.00000
  42      -0.00000    -0.00000    -0.00000    -0.00000     0.00000    -0.00000
  43      -0.00000     0.00000     0.00000    -0.00000    -0.00000    -0.00000
  44      -0.00000    -0.00000     0.00000     0.00000    -0.00000     0.00000
  45      -0.00000     0.00000    -0.00000    -0.00000     0.00000    -0.00000
  46      -0.00964     0.00000    -0.00000     0.00000    -0.00000     0.00000
  47      -0.00259    -0.00000     0.00000     0.00000     0.00000     0.00000
  48       0.00291     0.00000    -0.00000    -0.00000    -0.00000    -0.00000
  49      -0.00000    -0.00000    -0.00000     0.00000    -0.03643    -0.01919
  50      -0.00000     0.00000    -0.00000     0.00000    -0.01919     0.03643
  51       0.00000    -0.00000     0.00000     0.00000    -0.00000     0.00000
  52      -0.00028     0.00000    -0.00000    -0.00000    -0.00000    -0.00000
  53      -0.00763    -0.00000     0.00000     0.00000    -0.00000     0.00000
  54       0.00117     0.00000    -0.00000    -0.00000     0.00000    -0.00000
  55       0.00000    -0.00000     0.00000     0.00000    -0.00000     0.00000

           19          20          21          22          23          24  
       ----------- ----------- ----------- ----------- ----------- -----------
   1       0.00000     0.00000     0.00000     0.17219     0.00000     0.00000
   2      -0.04509     0.01066     0.07264    -0.00000    -0.00000    -0.07002
   3      -0.04866     0.05950    -0.03893     0.00000     0.00000    -0.07946
   4      -0.05498    -0.06140    -0.02512     0.00000     0.00000    -0.01200
   5       0.00000    -0.00000    -0.00000    -0.10535     0.00000     0.00000
   6       0.00000     0.00000     0.00000     0.00000    -0.25906     0.00000
   7       0.00000     0.00000     0.00000     0.00000     0.00000     0.00000
   8      -0.00000     0.00000    -0.00000    -0.00000    -0.00000     0.00000
   9       0.00000     0.00000     0.00000     0.00000     0.00000    -0.00000
  10      -0.00000    -0.00000     0.00000    -0.09782    -0.00000     0.00000
  11      -0.14789    -0.11464     0.09310     0.00000    -0.00000     0.08685
  12      -0.11884     0.01416    -0.17134    -0.00000    -0.00000     0.07987
  13      -0.08768     0.17418     0.07521     0.00000     0.00000     0.18815
  14       0.00000     0.00000     0.00000    -0.00000     0.00000    -0.00000
  15       0.00000    -0.00000    -0.00000     0.00000     0.00000    -0.00000
  16      -0.00000    -0.00000    -0.00000     0.00000    -0.00000    -0.00000
  17      -0.00000     0.00000     0.00000    -0.00000     0.00000     0.00000
  18       0.00000    -0.00000     0.00000     0.00000    -0.00000    -0.00000
  19       0.44474     0.00000     0.00000     0.00000     0.00000     0.12958
  20       0.00000     0.44474    -0.00000    -0.00000    -0.00000    -0.07990
  21       0.00000    -0.00000     0.44474    -0.00000     0.00000    -0.02853
  22       0.00000    -0.00000    -0.00000     0.27194     0.00000     0.00000
  23       0.00000    -0.00000     0.00000     0.00000     0.46053    -0.00000
  24       0.12958    -0.07990    -0.02853     0.00000    -0.00000     0.63620
  25      -0.00571    -0.06017     0.14260    -0.00000    -0.00000    -0.00000
  26      -0.08465    -0.11825    -0.05329     0.00000     0.00000     0.00000
  27       0.00000     0.00000    -0.00000    -0.00000    -0.00000    -0.00000
  28       0.00000    -0.00000    -0.00000     0.00000     0.00000    -0.00000
  29       0.00000     0.00000    -0.00000     0.00000     0.00000    -0.00000
  30       0.00000    -0.00000     0.00000    -0.00000     0.00000     0.00000
  31      -0.00000    -0.00000     0.00000    -0.00000    -0.00000     0.00000
  32       0.00000     0.00000     0.00000    -0.00000     0.00000     0.00000
  33      -0.03128     0.03024    -0.23642     0.00000    -0.00000     0.00056
  34      -0.07109     0.22641     0.03837    -0.00000     0.00000    -0.05782
  35       0.22750     0.07491    -0.02052     0.00000    -0.00000     0.04903
  36       0.00000     0.00000     0.00000    -0.13254     0.00000     0.00000
  37       0.00000    -0.00000    -0.00000     0.00000    -0.00000    -0.00000
  38      -0.00000    -0.00000     0.00000     0.00000     0.00000    -0.00000
  39      -0.00502    -0.01321     0.01142     0.00000    -0.00000    -0.00373
  40       0.01466     0.00325     0.01022     0.00000     0.00000    -0.06391
  41       0.00947    -0.01204    -0.00976     0.00000     0.00000    -0.11697
  42       0.00000    -0.00000     0.00000     0.00000     0.00000     0.00000
  43       0.00000     0.00000     0.00000    -0.00000    -0.00000    -0.00000
  44      -0.00000    -0.00000     0.00000     0.00000    -0.00000    -0.00000
  45      -0.00000    -0.00000     0.00000    -0.03356    -0.00000     0.00000
  46      -0.02996     0.02728     0.00864    -0.00000     0.00000    -0.03750
  47       0.01323     0.00210     0.03921    -0.00000    -0.00000     0.00254
  48      -0.02537    -0.03111     0.01023    -0.00000    -0.00000    -0.00650
  49       0.00000     0.00000    -0.00000    -0.00000    -0.00000     0.00000
  50       0.00000    -0.00000    -0.00000     0.00000    -0.00000    -0.00000
  51       0.00000     0.00000    -0.00000     0.10558    -0.00000    -0.00000
  52      -0.01276    -0.00811     0.00554    -0.00000     0.00000    -0.02405
  53      -0.00737     0.01391     0.00340    -0.00000     0.00000    -0.04474
  54      -0.00650     0.00016    -0.01473     0.00000     0.00000    -0.00898
  55      -0.00000    -0.00000    -0.00000    -0.00547    -0.00000    -0.00000

           25          26          27          28          29          30  
       ----------- ----------- ----------- ----------- ----------- -----------
   1       0.00000    -0.00000    -0.00000     0.00000    -0.00000    -0.00000
   2       0.07967    -0.01050    -0.00000     0.00000    -0.00000    -0.00000
   3      -0.07072    -0.00673    -0.00000     0.00000    -0.00000    -0.00000
   4       0.00341     0.10585    -0.00000     0.00000    -0.00000     0.00000
   5      -0.00000     0.00000    -0.00000    -0.00000     0.00000    -0.00000
   6      -0.00000     0.00000    -0.00000    -0.00000    -0.00000     0.00000
   7       0.00000     0.00000    -0.16877     0.16597    -0.07850     0.00000
   8       0.00000     0.00000     0.12780     0.02965    -0.21209     0.00000
   9      -0.00000    -0.00000    -0.13182    -0.18376    -0.10512    -0.00000
  10       0.00000    -0.00000    -0.00000     0.00000    -0.00000    -0.00000
  11      -0.14420    -0.14486     0.00000     0.00000    -0.00000     0.00000
  12       0.16882    -0.12017    -0.00000    -0.00000     0.00000     0.00000
  13      -0.00510     0.11788    -0.00000    -0.00000     0.00000    -0.00000
  14      -0.00000     0.00000     0.00000    -0.00000     0.00000     0.14933
  15       0.00000    -0.00000     0.00000     0.00000    -0.00000    -0.14292
  16       0.00000    -0.00000     0.00000     0.00000     0.00000    -0.15616
  17      -0.00000    -0.00000    -0.00000    -0.00000     0.00000     0.00000
  18       0.00000    -0.00000     0.00000     0.00000    -0.00000     0.00000
  19      -0.00571    -0.08465     0.00000     0.00000     0.00000     0.00000
  20      -0.06017    -0.11825     0.00000    -0.00000     0.00000    -0.00000
  21       0.14260    -0.05329    -0.00000    -0.00000    -0.00000     0.00000
  22      -0.00000     0.00000    -0.00000     0.00000     0.00000    -0.00000
  23      -0.00000     0.00000    -0.00000     0.00000     0.00000     0.00000
  24      -0.00000     0.00000    -0.00000    -0.00000    -0.00000    -0.00000
  25       0.63620    -0.00000    -0.00000    -0.00000     0.00000     0.00000
  26      -0.00000     0.63620    -0.00000     0.00000    -0.00000     0.00000
  27      -0.00000    -0.00000     0.39983     0.00000    -0.00000     0.00000
  28      -0.00000     0.00000     0.00000     0.39983     0.00000    -0.00000
  29       0.00000    -0.00000    -0.00000     0.00000     0.39983     0.00000
  30       0.00000     0.00000     0.00000    -0.00000     0.00000     0.46053
  31      -0.00000    -0.00000     0.00000    -0.00000     0.00000     0.00000
  32       0.00000     0.00000    -0.00000     0.00000     0.00000    -0.00000
  33      -0.07199     0.02376     0.00000     0.00000    -0.00000     0.00000
  34      -0.01577    -0.04642     0.00000    -0.00000     0.00000    -0.00000
  35      -0.01778    -0.05502     0.00000     0.00000    -0.00000     0.00000
  36      -0.00000     0.00000     0.00000    -0.00000     0.00000     0.00000
  37      -0.00000    -0.00000    -0.00000    -0.00000     0.00000    -0.00000
  38      -0.00000    -0.00000     0.00000     0.00000    -0.00000     0.00000
  39      -0.11618    -0.06534     0.00000    -0.00000    -0.00000     0.00000
  40      -0.05580     0.10287    -0.00000    -0.00000     0.00000     0.00000
  41       0.03420    -0.05412    -0.00000    -0.00000     0.00000     0.00000
  42       0.00000     0.00000    -0.12929     0.07795     0.01080     0.00000
  43      -0.00000    -0.00000    -0.06984    -0.10409    -0.08483     0.00000
  44       0.00000     0.00000     0.03626     0.07745    -0.12489     0.00000
  45      -0.00000     0.00000    -0.00000     0.00000    -0.00000     0.00000
  46      -0.00141    -0.00683    -0.00000    -0.00000     0.00000    -0.00000
  47       0.03204    -0.02055     0.00000    -0.00000     0.00000    -0.00000
  48       0.02066     0.03140     0.00000    -0.00000    -0.00000     0.00000
  49       0.00000     0.00000    -0.00000     0.00000     0.00000    -0.00000
  50      -0.00000    -0.00000     0.00000    -0.00000    -0.00000     0.00000
  51       0.00000    -0.00000     0.00000    -0.00000     0.00000     0.00000
  52       0.02794     0.03607    -0.00000    -0.00000     0.00000    -0.00000
  53      -0.00641    -0.02486    -0.00000    -0.00000     0.00000     0.00000
  54      -0.04288     0.02723    -0.00000     0.00000    -0.00000    -0.00000
  55       0.00000    -0.00000    -0.00000    -0.00000     0.00000     0.00000

           31          32          33          34          35          36  
       ----------- ----------- ----------- ----------- ----------- -----------
   1       0.00000    -0.00000    -0.00000     0.00000     0.00000    -0.06916
   2       0.00000     0.00000    -0.01123     0.00611    -0.00796     0.00000
   3      -0.00000     0.00000     0.00911     0.01123    -0.00423    -0.00000
   4       0.00000    -0.00000     0.00422    -0.00797    -0.01207    -0.00000
   5       0.00000    -0.00000     0.00000    -0.00000     0.00000    -0.02030
   6       0.00000    -0.00000    -0.00000     0.00000     0.00000    -0.00000
   7       0.00000    -0.00000    -0.00000     0.00000     0.00000    -0.00000
   8       0.00000     0.00000     0.00000     0.00000    -0.00000     0.00000
   9       0.00000     0.00000    -0.00000     0.00000     0.00000    -0.00000
  10       0.00000     0.00000    -0.00000    -0.00000    -0.00000    -0.08321
  11       0.00000    -0.00000    -0.03975    -0.02263    -0.08415     0.00000
  12      -0.00000    -0.00000     0.08513     0.00969    -0.04282     0.00000
  13       0.00000    -0.00000    -0.01863     0.09256    -0.01609    -0.00000
  14       0.08985    -0.19167    -0.00000     0.00000     0.00000    -0.00000
  15      -0.13025    -0.17240     0.00000    -0.00000     0.00000    -0.00000
  16       0.20512    -0.02551     0.00000    -0.00000    -0.00000    -0.00000
  17       0.00000    -0.00000     0.00000    -0.00000     0.00000    -0.00000
  18       0.00000    -0.00000     0.00000     0.00000     0.00000     0.00000
  19      -0.00000     0.00000    -0.03128    -0.07109     0.22750     0.00000
  20      -0.00000     0.00000     0.03024     0.22641     0.07491     0.00000
  21       0.00000     0.00000    -0.23642     0.03837    -0.02052     0.00000
  22      -0.00000    -0.00000     0.00000    -0.00000     0.00000    -0.13254
  23      -0.00000     0.00000    -0.00000     0.00000    -0.00000     0.00000
  24       0.00000     0.00000     0.00056    -0.05782     0.04903     0.00000
  25      -0.00000     0.00000    -0.07199    -0.01577    -0.01778    -0.00000
  26      -0.00000     0.00000     0.02376    -0.04642    -0.05502     0.00000
  27       0.00000    -0.00000     0.00000     0.00000     0.00000     0.00000
  28      -0.00000     0.00000     0.00000    -0.00000     0.00000    -0.00000
  29       0.00000     0.00000    -0.00000     0.00000    -0.00000     0.00000
  30       0.00000    -0.00000     0.00000    -0.00000     0.00000     0.00000
  31       0.46053    -0.00000    -0.00000    -0.00000     0.00000     0.00000
  32      -0.00000     0.46053     0.00000     0.00000     0.00000     0.00000
  33      -0.00000     0.00000     0.43338    -0.00000    -0.00000     0.00000
  34      -0.00000     0.00000    -0.00000     0.43338    -0.00000     0.00000
  35       0.00000     0.00000    -0.00000    -0.00000     0.43338    -0.00000
  36       0.00000     0.00000     0.00000     0.00000    -0.00000     0.15169
  37      -0.00000    -0.00000    -0.00000    -0.00000     0.00000     0.00000
  38       0.00000     0.00000    -0.00000     0.00000    -0.00000    -0.00000
  39      -0.00000     0.00000     0.05910     0.04411     0.04755     0.00000
  40      -0.00000    -0.00000     0.05577    -0.00174    -0.06772     0.00000
  41      -0.00000     0.00000    -0.03310     0.07583    -0.02921    -0.00000
  42       0.00000    -0.00000     0.00000     0.00000     0.00000    -0.00000
  43       0.00000     0.00000     0.00000     0.00000     0.00000     0.00000
  44       0.00000     0.00000    -0.00000     0.00000    -0.00000    -0.00000
  45      -0.00000    -0.00000     0.00000    -0.00000     0.00000    -0.02532
  46      -0.00000     0.00000    -0.00218     0.06694    -0.03837    -0.00000
  47       0.00000    -0.00000    -0.07455     0.00806     0.01831     0.00000
  48       0.00000    -0.00000    -0.01988    -0.03757    -0.06442     0.00000
  49      -0.00000    -0.00000    -0.00000    -0.00000     0.00000     0.00000
  50       0.00000    -0.00000     0.00000    -0.00000    -0.00000    -0.00000
  51      -0.00000    -0.00000    -0.00000     0.00000    -0.00000    -0.14247
  52      -0.00000    -0.00000    -0.01485    -0.00921    -0.04654     0.00000
  53      -0.00000     0.00000    -0.00196     0.04884    -0.00904     0.00000
  54      -0.00000    -0.00000     0.04740    -0.00087    -0.01495    -0.00000
  55       0.00000    -0.00000    -0.00000     0.00000    -0.00000    -0.00803

           37          38          39          40          41          42  
       ----------- ----------- ----------- ----------- ----------- -----------
   1      -0.00000     0.00000    -0.00000    -0.00000     0.00000     0.00000
   2       0.00000    -0.00000     0.01102     0.00139    -0.01523     0.00000
   3      -0.00000     0.00000    -0.01187    -0.01105    -0.00960     0.00000
   4      -0.00000    -0.00000     0.00964    -0.01521     0.00558     0.00000
   5      -0.00000    -0.00000     0.00000    -0.00000     0.00000    -0.00000
   6       0.00000     0.00000    -0.00000    -0.00000    -0.00000     0.00000
   7      -0.00000     0.00000     0.00000     0.00000     0.00000     0.03700
   8      -0.00000     0.00000     0.00000     0.00000     0.00000    -0.01800
   9       0.00000    -0.00000    -0.00000     0.00000     0.00000     0.00173
  10       0.00000     0.00000    -0.00000    -0.00000    -0.00000     0.00000
  11       0.00000    -0.00000    -0.03003     0.01439     0.00841    -0.00000
  12      -0.00000    -0.00000     0.01398     0.03118    -0.00340     0.00000
  13      -0.00000    -0.00000     0.00906    -0.00045     0.03312    -0.00000
  14       0.00000    -0.00000     0.00000    -0.00000     0.00000    -0.00000
  15      -0.00000     0.00000    -0.00000     0.00000    -0.00000    -0.00000
  16       0.00000    -0.00000     0.00000     0.00000    -0.00000    -0.00000
  17      -0.23365     0.08720     0.00000     0.00000     0.00000     0.00000
  18       0.08720     0.23365    -0.00000    -0.00000     0.00000    -0.00000
  19       0.00000    -0.00000    -0.00502     0.01466     0.00947     0.00000
  20      -0.00000    -0.00000    -0.01321     0.00325    -0.01204    -0.00000
  21      -0.00000     0.00000     0.01142     0.01022    -0.00976     0.00000
  22       0.00000     0.00000     0.00000     0.00000     0.00000     0.00000
  23      -0.00000     0.00000    -0.00000     0.00000     0.00000     0.00000
  24      -0.00000    -0.00000    -0.00373    -0.06391    -0.11697     0.00000
  25      -0.00000    -0.00000    -0.11618    -0.05580     0.03420     0.00000
  26      -0.00000    -0.00000    -0.06534     0.10287    -0.05412     0.00000
  27      -0.00000     0.00000     0.00000    -0.00000    -0.00000    -0.12929
  28      -0.00000     0.00000    -0.00000    -0.00000    -0.00000     0.07795
  29       0.00000    -0.00000    -0.00000     0.00000     0.00000     0.01080
  30      -0.00000     0.00000     0.00000     0.00000     0.00000     0.00000
  31      -0.00000     0.00000    -0.00000    -0.00000    -0.00000     0.00000
  32      -0.00000     0.00000     0.00000    -0.00000     0.00000    -0.00000
  33      -0.00000    -0.00000     0.05910     0.05577    -0.03310     0.00000
  34      -0.00000     0.00000     0.04411    -0.00174     0.07583     0.00000
  35       0.00000    -0.00000     0.04755    -0.06772    -0.02921     0.00000
  36       0.00000    -0.00000     0.00000     0.00000    -0.00000    -0.00000
  37       0.39983    -0.00000     0.00000     0.00000     0.00000     0.00000
  38      -0.00000     0.39983     0.00000     0.00000    -0.00000     0.00000
  39       0.00000     0.00000     0.27680    -0.00000     0.00000     0.00000
  40       0.00000     0.00000    -0.00000     0.27680     0.00000    -0.00000
  41       0.00000    -0.00000     0.00000     0.00000     0.27680     0.00000
  42       0.00000     0.00000     0.00000    -0.00000     0.00000     0.20083
  43       0.00000    -0.00000     0.00000    -0.00000    -0.00000     0.00000
  44       0.00000    -0.00000    -0.00000     0.00000    -0.00000     0.00000
  45      -0.00000     0.00000    -0.00000     0.00000    -0.00000     0.00000
  46       0.00000    -0.00000    -0.00985    -0.02325    -0.06175     0.00000
  47      -0.00000    -0.00000     0.03133     0.05331    -0.02506     0.00000
  48       0.00000    -0.00000     0.05808    -0.03270     0.00305     0.00000
  49       0.10080    -0.11291    -0.00000     0.00000     0.00000    -0.00000
  50       0.11291     0.10080     0.00000     0.00000    -0.00000     0.00000
  51       0.00000    -0.00000     0.00000     0.00000     0.00000    -0.00000
  52      -0.00000    -0.00000    -0.02423     0.01621     0.00798    -0.00000
  53       0.00000     0.00000     0.01115     0.00290     0.02795     0.00000
  54      -0.00000    -0.00000     0.01422     0.02535    -0.00830    -0.00000
  55      -0.00000    -0.00000    -0.00000     0.00000     0.00000    -0.00000

           43          44          45          46          47          48  
       ----------- ----------- ----------- ----------- ----------- -----------
   1       0.00000     0.00000     0.01071     0.00000    -0.00000    -0.00000
   2       0.00000     0.00000     0.00000     0.00606     0.00608     0.00416
   3       0.00000     0.00000     0.00000     0.00733    -0.00546    -0.00271
   4       0.00000     0.00000     0.00000    -0.00065    -0.00492     0.00814
   5      -0.00000    -0.00000     0.13142    -0.00000    -0.00000     0.00000
   6       0.00000     0.00000     0.00000    -0.00000    -0.00000     0.00000
   7       0.00128     0.01804     0.00000     0.00000     0.00000    -0.00000
   8       0.00652     0.03646     0.00000    -0.00000     0.00000     0.00000
   9       0.04064    -0.00642     0.00000     0.00000     0.00000    -0.00000
  10       0.00000    -0.00000     0.27160    -0.00000     0.00000     0.00000
  11       0.00000     0.00000    -0.00000    -0.00253    -0.00175    -0.00994
  12      -0.00000    -0.00000    -0.00000    -0.00296     0.00992    -0.00099
  13      -0.00000    -0.00000    -0.00000    -0.00964    -0.00259     0.00291
  14       0.00000    -0.00000     0.00000     0.00000    -0.00000     0.00000
  15       0.00000     0.00000    -0.00000    -0.00000     0.00000    -0.00000
  16      -0.00000     0.00000    -0.00000     0.00000     0.00000    -0.00000
  17      -0.00000    -0.00000     0.00000    -0.00000     0.00000    -0.00000
  18      -0.00000     0.00000    -0.00000     0.00000     0.00000    -0.00000
  19       0.00000    -0.00000    -0.00000    -0.02996     0.01323    -0.02537
  20       0.00000    -0.00000    -0.00000     0.02728     0.00210    -0.03111
  21       0.00000     0.00000     0.00000     0.00864     0.03921     0.01023
  22      -0.00000     0.00000    -0.03356    -0.00000    -0.00000    -0.00000
  23      -0.00000    -0.00000    -0.00000     0.00000    -0.00000    -0.00000
  24      -0.00000    -0.00000     0.00000    -0.03750     0.00254    -0.00650
  25      -0.00000     0.00000    -0.00000    -0.00141     0.03204     0.02066
  26      -0.00000     0.00000     0.00000    -0.00683    -0.02055     0.03140
  27      -0.06984     0.03626    -0.00000    -0.00000     0.00000     0.00000
  28      -0.10409     0.07745     0.00000    -0.00000    -0.00000    -0.00000
  29      -0.08483    -0.12489    -0.00000     0.00000     0.00000    -0.00000
  30       0.00000     0.00000     0.00000    -0.00000    -0.00000     0.00000
  31       0.00000     0.00000    -0.00000    -0.00000     0.00000     0.00000
  32       0.00000     0.00000    -0.00000     0.00000    -0.00000    -0.00000
  33       0.00000    -0.00000     0.00000    -0.00218    -0.07455    -0.01988
  34       0.00000     0.00000    -0.00000     0.06694     0.00806    -0.03757
  35       0.00000    -0.00000     0.00000    -0.03837     0.01831    -0.06442
  36       0.00000    -0.00000    -0.02532    -0.00000     0.00000     0.00000
  37       0.00000     0.00000    -0.00000     0.00000    -0.00000     0.00000
  38      -0.00000    -0.00000    -0.00000    -0.00000    -0.00000    -0.00000
  39       0.00000    -0.00000    -0.00000    -0.00985     0.03133     0.05808
  40      -0.00000     0.00000     0.00000    -0.02325     0.05331    -0.03270
  41      -0.00000    -0.00000    -0.00000    -0.06175    -0.02506     0.00305
  42       0.00000     0.00000     0.00000     0.00000     0.00000     0.00000
  43       0.20083     0.00000     0.00000     0.00000     0.00000    -0.00000
  44      -0.00000     0.20083     0.00000    -0.00000    -0.00000     0.00000
  45       0.00000     0.00000    -0.19714     0.00000     0.00000    -0.00000
  46       0.00000    -0.00000     0.00000     0.10611    -0.00000    -0.00000
  47       0.00000    -0.00000     0.00000    -0.00000     0.10611     0.00000
  48      -0.00000     0.00000    -0.00000    -0.00000     0.00000     0.10611
  49       0.00000     0.00000    -0.00000     0.00000    -0.00000    -0.00000
  50       0.00000    -0.00000     0.00000    -0.00000    -0.00000     0.00000
  51      -0.00000    -0.00000     0.70957    -0.00000    -0.00000     0.00000
  52      -0.00000     0.00000    -0.00000     0.00907     0.00136     0.02749
  53      -0.00000     0.00000     0.00000     0.02735     0.00283    -0.00917
  54       0.00000    -0.00000    -0.00000     0.00311    -0.02881     0.00040
  55      -0.00000    -0.00000     0.10890     0.00000    -0.00000    -0.00000

           49          50          51          52          53          54  
       ----------- ----------- ----------- ----------- ----------- -----------
   1       0.00000     0.00000     0.02980    -0.00000     0.00000    -0.00000
   2       0.00000     0.00000    -0.00000     0.00305     0.00249    -0.00265
   3       0.00000     0.00000    -0.00000    -0.00027     0.00361     0.00308
   4      -0.00000    -0.00000     0.00000     0.00363    -0.00183     0.00246
   5      -0.00000    -0.00000    -0.26368     0.00000     0.00000     0.00000
   6      -0.00000    -0.00000     0.00000    -0.00000    -0.00000     0.00000
   7      -0.00000    -0.00000     0.00000     0.00000     0.00000    -0.00000
   8      -0.00000    -0.00000     0.00000     0.00000    -0.00000    -0.00000
   9       0.00000     0.00000     0.00000     0.00000     0.00000    -0.00000
  10      -0.00000    -0.00000    -0.29675     0.00000    -0.00000    -0.00000
  11       0.00000    -0.00000     0.00000    -0.00765     0.00043     0.00098
  12      -0.00000    -0.00000     0.00000    -0.00104    -0.00113    -0.00757
  13      -0.00000    -0.00000     0.00000    -0.00028    -0.00763     0.00117
  14      -0.00000     0.00000    -0.00000     0.00000    -0.00000     0.00000
  15      -0.00000    -0.00000     0.00000    -0.00000     0.00000    -0.00000
  16       0.00000     0.00000     0.00000    -0.00000     0.00000    -0.00000
  17      -0.03643    -0.01919    -0.00000    -0.00000    -0.00000     0.00000
  18      -0.01919     0.03643     0.00000    -0.00000     0.00000    -0.00000
  19       0.00000     0.00000     0.00000    -0.01276    -0.00737    -0.00650
  20       0.00000    -0.00000     0.00000    -0.00811     0.01391     0.00016
  21      -0.00000    -0.00000    -0.00000     0.00554     0.00340    -0.01473
  22      -0.00000     0.00000     0.10558    -0.00000    -0.00000     0.00000
  23      -0.00000    -0.00000    -0.00000     0.00000     0.00000     0.00000
  24       0.00000    -0.00000    -0.00000    -0.02405    -0.04474    -0.00898
  25       0.00000    -0.00000     0.00000     0.02794    -0.00641    -0.04288
  26       0.00000    -0.00000    -0.00000     0.03607    -0.02486     0.02723
  27      -0.00000     0.00000     0.00000    -0.00000    -0.00000    -0.00000
  28       0.00000    -0.00000    -0.00000    -0.00000    -0.00000     0.00000
  29       0.00000    -0.00000     0.00000     0.00000     0.00000    -0.00000
  30      -0.00000     0.00000     0.00000    -0.00000     0.00000    -0.00000
  31      -0.00000     0.00000    -0.00000    -0.00000    -0.00000    -0.00000
  32      -0.00000    -0.00000    -0.00000    -0.00000     0.00000    -0.00000
  33      -0.00000     0.00000    -0.00000    -0.01485    -0.00196     0.04740
  34      -0.00000    -0.00000     0.00000    -0.00921     0.04884    -0.00087
  35       0.00000    -0.00000    -0.00000    -0.04654    -0.00904    -0.01495
  36       0.00000    -0.00000    -0.14247     0.00000     0.00000    -0.00000
  37       0.10080     0.11291     0.00000    -0.00000     0.00000    -0.00000
  38      -0.11291     0.10080    -0.00000    -0.00000     0.00000    -0.00000
  39      -0.00000     0.00000     0.00000    -0.02423     0.01115     0.01422
  40       0.00000     0.00000     0.00000     0.01621     0.00290     0.02535
  41       0.00000    -0.00000     0.00000     0.00798     0.02795    -0.00830
  42      -0.00000     0.00000    -0.00000    -0.00000     0.00000    -0.00000
  43       0.00000     0.00000    -0.00000    -0.00000    -0.00000     0.00000
  44       0.00000    -0.00000    -0.00000     0.00000     0.00000    -0.00000
[...]
  46      -3.17105     0.37151     0.05862     0.20561    -0.24005     0.59690
  47       0.23465     0.81094    -0.23512    -0.12544     0.58815    -0.13619
  48       0.46936    -0.12124    -0.45760    -0.70645    -1.59415    -0.25618
  49      -3.17105    -1.11116    -1.33398    -0.18791     0.63649    -0.35642
  50      -0.00000    -0.00000     0.00000    -0.00000     0.00000    -0.00000
  51      -3.17105    -0.00338     1.15811    -0.42891     0.08367    -1.43429
  52       0.23465    -0.11687    -0.07972     0.53443    -0.29140    -0.23690
  53       0.46936    -1.16636     0.88654     0.76427     0.21928     0.49509
  54       0.23465    -0.46031     0.47427    -1.47784     0.28605     0.84689
  55       0.46936     0.42920    -0.14298    -0.01927     0.45829    -0.07964

           49          50          51          52          53          54  
       ----------- ----------- ----------- ----------- ----------- -----------
   1      -0.00000     0.00000    -2.03203    -0.00000    -0.00000    -0.00000
   2      -0.00000     0.00000    -3.99336    -0.00000    -0.00000    -0.00000
   3      -0.00000     0.00000   -39.56722    -0.00000    -0.00000    -0.00000
   4       0.00000    -0.00000    62.79026     0.00000     0.00000     0.00000
   5      -0.00000     0.00000    -0.24389    -0.00000    -0.00000    -0.00000
   6       0.00000     0.00000     0.00000    -3.95479    -6.46111    -2.87013
   7      -0.00000    -0.00000     0.00000     0.33255     3.11502    -7.47061
   8       0.00000    -0.00000     0.00000    -7.06208     3.76493     1.25549
   9      -0.00000    -0.00000    -0.00000    21.74669    35.52850    15.78236
  10       0.00000     0.00000    -0.00000    -1.82865   -17.12893    41.07957
  11      -0.00000     0.00000    -0.00000    38.83314   -20.70268    -6.90374
  12       0.00000     0.00000     0.00000    -2.02449    -3.30750    -1.46925
  13      -0.00000    -0.00000     0.00000     0.17024     1.59461    -3.82428
  14       0.00000    -0.00000     0.00000    -3.61515     1.92730     0.64270
  15      -0.00000    -0.00000    -0.00000     0.56009     0.91505     0.40648
  16       0.00000     0.00000    -0.00000    -0.04710    -0.44116     1.05802
  17      -0.00000     0.00000    -0.00000     1.00016    -0.53320    -0.17781
  18      -0.00000    -0.00000     3.70963     0.00000     0.00000     0.00000
  19       0.00000    -0.00000    -0.00000    -0.00000    -0.00000     0.00000
  20      -0.00000    -0.00000     0.00000     0.00000    -0.00000     0.00000
  21       0.00000     0.00000     3.70963     0.00000     0.00000     0.00000
  22      -0.00000     0.00000    -0.00000    -0.00000     0.00000     0.00000
  23       0.00000    -0.00000     3.70963     0.00000     0.00000     0.00000
  24      -0.00000     0.00000    -4.11081    -0.00000    -0.00000    -0.00000
  25      -0.00000     0.00000     0.00000     0.00000     0.00000    -0.00000
  26       0.00000     0.00000    -0.00000    -0.00000     0.00000    -0.00000
  27      -0.00000     0.00000    -4.11081    -0.00000    -0.00000    -0.00000
  28       0.00000    -0.00000     0.00000     0.00000    -0.00000    -0.00000
  29      -0.00000     0.00000    -4.11081    -0.00000    -0.00000    -0.00000
  30      -0.00000     0.00000   -14.11877    -0.00000    -0.00000    -0.00000
  31       0.00000    -0.00000    -0.00000    -0.00000    -0.00000     0.00000
  32      -0.00000    -0.00000     0.00000     0.00000    -0.00000    -0.00000
  33      -0.00000     0.00000   -14.11877    -0.00000    -0.00000    -0.00000
  34      -0.00000     0.00000     0.00000    -0.00000     0.00000     0.00000
  35      -0.00000     0.00000   -14.11877    -0.00000    -0.00000    -0.00000
  36      -0.04412     0.00000     0.00000    -2.65400    -4.33596    -1.92611
  37       2.80846     0.00000     0.00000     0.22317     2.09045    -5.01342
  38       0.90541     0.00000     0.00000    -4.73927     2.52659     0.84254
  39       0.15859    -0.00000     0.00000    -2.65400    -4.33596    -1.92611
  40      -0.00000     5.32471     0.00000    -0.00000     0.00000    -0.00000
  41      -0.02623    -0.00000     0.00000    -2.65400    -4.33596    -1.92611
  42      -0.69208     0.00000     0.00000     0.22317     2.09045    -5.01342
  43       1.33716    -0.00000     0.00000    -4.73927     2.52659     0.84254
  44      -0.73222    -0.00000     0.00000     0.22317     2.09045    -5.01342
  45      -0.74752     0.00000     0.00000    -4.73927     2.52659     0.84254
  46       0.02482    -0.00000     0.00000    -9.87285   -16.12970    -7.16508
  47      -1.58002    -0.00000     0.00000     0.83019     7.77642   -18.64985
  48      -0.50938    -0.00000     0.00000   -17.62998     9.39888     3.13425
  49      -0.08922     0.00000     0.00000    -9.87285   -16.12970    -7.16508
  50       0.00000    -2.99566    -0.00000     0.00000    -0.00000     0.00000
  51       0.01476     0.00000     0.00000    -9.87285   -16.12970    -7.16508
  52       0.38936    -0.00000     0.00000     0.83019     7.77642   -18.64985
  53      -0.75228     0.00000     0.00000   -17.62998     9.39888     3.13425
  54       0.41194     0.00000     0.00000     0.83019     7.77642   -18.64985
  55       0.42055    -0.00000     0.00000   -17.62998     9.39888     3.13425

           55  
       -----------
   1      13.27381
   2      17.01664
   3      23.22264
   4     -16.25091
   5      -0.01152
   6       0.00000
   7       0.00000
   8       0.00000
   9      -0.00000
  10      -0.00000
  11      -0.00000
  12       0.00000
  13       0.00000
  14       0.00000
  15      -0.00000
  16      -0.00000
  17      -0.00000
  18      -4.24411
  19       0.00000
  20      -0.00000
  21      -4.24411
  22       0.00000
  23      -4.24411
  24      -1.01205
  25      -0.00000
  26       0.00000
  27      -1.01205
  28      -0.00000
  29      -1.01205
  30       3.81915
  31      -0.00000
  32      -0.00000
  33       3.81915
  34      -0.00000
  35       3.81915
  36       0.00000
  37       0.00000
  38       0.00000
  39       0.00000
  40      -0.00000
  41       0.00000
  42       0.00000
  43       0.00000
  44       0.00000
  45       0.00000
  46       0.00000
  47       0.00000
  48       0.00000
  49       0.00000
  50       0.00000
  51       0.00000
  52       0.00000
  53       0.00000
  54       0.00000
  55       0.00000
  int_init: cando_txs set to always be  F
                                NWChem TDDFT Module
                                -------------------


            General Information
            -------------------
           No. of orbitals :     110
            Alpha orbitals :      55
             Beta orbitals :      55
        Alpha frozen cores :       0
         Beta frozen cores :       0
     Alpha frozen virtuals :       0
      Beta frozen virtuals :       0
         Spin multiplicity :       2
    Number of AO functions :      55
        Use of symmetry is : off
      Symmetry adaption is : off
         Schwarz screening :  0.10D-07

              XC Information
              --------------
              Hartree-Fock (Exact) Exchange   1.00          
              LC-wPBE(h)Exchange Functional   1.00          
     Perdew 1991 LDA Correlation Functional   1.00 local    
    PerdewBurkeErnz. Correlation Functional   1.00 non-local
           Alpha           :  0.00
           Beta            :  1.00
           Gamma           :  0.26

             TDDFT Information
             -----------------
          Calculation type : TDDFT             
         Wavefunction type : Unrestricted
          No. of electrons :       3
           Alpha electrons :       2
            Beta electrons :       1
              No. of roots :       5
          Max subspacesize :    5000
            Max iterations :     100
               Target root :       1
           Target symmetry : none
      Symmetry restriction : off
                 Algorithm : Optimal
        Davidson threshold :  0.10D-03

            Memory Information
            ------------------
          Available GA space size is       52428793950 doubles
          Available MA space size is        4194412012 doubles
          Length of a trial vector is          106      54
          Algorithm : Incore multiple tensor contraction
          Estimated peak GA usage is           3709800 doubles
          Estimated peak MA usage is             18000 doubles

    5 smallest eigenvalue differences (eV) 
--------------------------------------------------------
  No. Spin  Occ  Vir  Irrep   E(Occ)    E(Vir)   E(Diff)
--------------------------------------------------------
    1    1    2    3 a        -0.202     0.010     5.751
    2    1    2    4 a        -0.202     0.010     5.751
    3    1    2    5 a        -0.202     0.010     5.751
    4    1    2    6 a        -0.202     0.017     5.964
    5    1    2    7 a        -0.202     0.034     6.418
--------------------------------------------------------

  Entering Davidson iterations
  Unrestricted

  Iter   NTrls   NConv    DeltaV     DeltaE      Time   
  ----  ------  ------  ---------  ---------  --------- 
    1      5       0     0.50E-01   0.10+100        2.0
    2     15       0     0.18E-01   0.26E-01        3.4
    3     25       1     0.53E-02   0.18E-02        3.5
    4     32       2     0.29E-03   0.16E-04        2.6
    5     38       5     0.37E-04   0.25E-07        2.2
  ----  ------  ------  ---------  ---------  --------- 
  Convergence criterion met

  Ground state a          -7.466271213711 a.u.
  <S2> =   0.7500

  ----------------------------------------------------------------------------
  Root   1         a              0.070504288 a.u.                1.9185 eV 
  <S2> =   0.7500
  ----------------------------------------------------------------------------
     Transition Moments    X  2.29594   Y  0.01154   Z  0.04328
     Transition Moments   XX  0.00000  XY  0.00000  XZ  0.00000
     Transition Moments   YY  0.00000  YZ  0.00000  ZZ  0.00000
     Dipole Oscillator Strength                    0.2478618341
     Electric Quadrupole                           0.0000000000
     Magnetic Dipole                               0.0000000000
     Total Oscillator Strength                     0.2478618341

     Occ.    2 alpha a   ---  Virt.    3 alpha a   -0.55707 X
     Occ.    2 alpha a   ---  Virt.    4 alpha a   -0.07244 X
     Occ.    2 alpha a   ---  Virt.    5 alpha a   -0.56210 X
     Occ.    2 alpha a   ---  Virt.    8 alpha a   -0.07190 X
     Occ.    2 alpha a   ---  Virt.    9 alpha a   -0.56355 X
     Occ.    2 alpha a   ---  Virt.   16 alpha a    0.20024 X
     Occ.    2 alpha a   ---  Virt.   18 alpha a    0.06125 X
  ----------------------------------------------------------------------------
  Root   2         a              0.070504288 a.u.                1.9185 eV 
  <S2> =   0.7500
  ----------------------------------------------------------------------------
     Transition Moments    X -0.00733   Y -2.09212   Z  0.94674
     Transition Moments   XX -0.00000  XY  0.00000  XZ  0.00000
     Transition Moments   YY -0.00000  YZ -0.00000  ZZ -0.00000
     Dipole Oscillator Strength                    0.2478618341
     Electric Quadrupole                           0.0000000000
     Magnetic Dipole                               0.0000000000
     Total Oscillator Strength                     0.2478618341

     Occ.    2 alpha a   ---  Virt.    3 alpha a   -0.49283 X
     Occ.    2 alpha a   ---  Virt.    4 alpha a   -0.32728 X
     Occ.    2 alpha a   ---  Virt.    5 alpha a    0.53060 X
     Occ.    2 alpha a   ---  Virt.    8 alpha a    0.56355 X
     Occ.    2 alpha a   ---  Virt.    9 alpha a   -0.07190 X
     Occ.    2 alpha a   ---  Virt.   16 alpha a    0.05336 X
     Occ.    2 alpha a   ---  Virt.   17 alpha a    0.19180 X
     Occ.    2 alpha a   ---  Virt.   18 alpha a   -0.07260 X
  ----------------------------------------------------------------------------
  Root   3         a              0.070504288 a.u.                1.9185 eV 
  <S2> =   0.7500
  ----------------------------------------------------------------------------
     Transition Moments    X  0.04418   Y -0.94670   Z -2.09168
     Transition Moments   XX -0.00000  XY  0.00000  XZ  0.00000
     Transition Moments   YY -0.00000  YZ  0.00000  ZZ -0.00000
     Dipole Oscillator Strength                    0.2478618097
     Electric Quadrupole                           0.0000000000
     Magnetic Dipole                               0.0000000000
     Total Oscillator Strength                     0.2478618097

     Occ.    2 alpha a   ---  Virt.    3 alpha a   -0.27986 X
     Occ.    2 alpha a   ---  Virt.    4 alpha a    0.72053 X
     Occ.    2 alpha a   ---  Virt.    5 alpha a    0.18449 X
     Occ.    2 alpha a   ---  Virt.    7 alpha a    0.56812 X
     Occ.    2 alpha a   ---  Virt.   17 alpha a   -0.08403 X
     Occ.    2 alpha a   ---  Virt.   18 alpha a   -0.18942 X
  ----------------------------------------------------------------------------
  Root   4         a              0.128345287 a.u.                3.4925 eV 
  <S2> =   0.7500
  ----------------------------------------------------------------------------
     Transition Moments    X  0.00000   Y  0.00000   Z  0.00000
     Transition Moments   XX -4.25099  XY -0.00000  XZ -0.00000
     Transition Moments   YY -4.25099  YZ -0.00000  ZZ -4.25099
     Dipole Oscillator Strength                    0.0000000000
     Electric Quadrupole                           0.0000000000
     Magnetic Dipole                               0.0000000000
     Total Oscillator Strength                     0.0000000000

     Occ.    2 alpha a   ---  Virt.    6 alpha a    0.93742 X
     Occ.    2 alpha a   ---  Virt.   15 alpha a   -0.34484 X
  ----------------------------------------------------------------------------
  Root   5         a              0.144082929 a.u.                3.9207 eV 
  <S2> =   0.7500
  ----------------------------------------------------------------------------
     Transition Moments    X -0.00271   Y  0.05800   Z  0.12815
     Transition Moments   XX -0.00000  XY  0.00000  XZ -0.00000
     Transition Moments   YY -0.00000  YZ  0.00000  ZZ -0.00000
     Dipole Oscillator Strength                    0.0019014102
     Electric Quadrupole                           0.0000000000
     Magnetic Dipole                               0.0000000000
     Total Oscillator Strength                     0.0019014102

     Occ.    2 alpha a   ---  Virt.    3 alpha a    0.21179 X
     Occ.    2 alpha a   ---  Virt.    4 alpha a   -0.54524 X
     Occ.    2 alpha a   ---  Virt.    5 alpha a   -0.13961 X
     Occ.    2 alpha a   ---  Virt.    7 alpha a    0.68839 X
     Occ.    2 alpha a   ---  Virt.   16 alpha a    0.08385 X
     Occ.    2 alpha a   ---  Virt.   17 alpha a   -0.15903 X
     Occ.    2 alpha a   ---  Virt.   18 alpha a   -0.35851 X
     Occ.    2 alpha a   ---  Virt.   34 alpha a   -0.05107 X

              Target root =      1
          Target symmetry = none
      Ground state energy =     -7.466271213711
        Excitation energy =      0.070504287822
     Excited state energy =     -7.395766925889

  stored tddft:energy   -7.3957669258888030     

 Task  times  cpu:       12.5s     wall:       14.9s


                                NWChem Input Module
                                -------------------


 Summary of allocated global arrays
-----------------------------------
  No active global arrays


MA_summarize_allocated_blocks: starting scan ...
heap block 'gridpts', handle 72, address 0x135a66c0:
	type of elements:		double precision
	number of elements:		1048466373
	address of client space:	0x135a6740
	index for client space:		12429375
	total number of bytes:		8387731120
MA_summarize_allocated_blocks: scan completed: 1 heap block, 0 stack blocks
MA usage statistics:

	allocation statistics:
					      heap	     stack
					      ----	     -----
	current number of blocks	         1	         0
	maximum number of blocks	        18	        54
	current total bytes		8387731120	         0
	maximum total bytes		8388034408	  22513208
	maximum total K-bytes		   8388035	     22514
	maximum total M-bytes		      8389	        23


                                     CITATION
                                     --------
                Please cite the following reference when publishing
                           results obtained with NWChem:

          E. Apra, E. J. Bylaska, W. A. de Jong, N. Govind, K. Kowalski,
       T. P. Straatsma, M. Valiev, H. J. J. van Dam, Y. Alexeev, J. Anchell,
       V. Anisimov, F. W. Aquino, R. Atta-Fynn, J. Autschbach, N. P. Bauman,
     J. C. Becca, D. E. Bernholdt, K. Bhaskaran-Nair, S. Bogatko, P. Borowski,
         J. Boschen, J. Brabec, A. Bruner, E. Cauet, Y. Chen, G. N. Chuev,
      C. J. Cramer, J. Daily, M. J. O. Deegan, T. H. Dunning Jr., M. Dupuis,
   K. G. Dyall, G. I. Fann, S. A. Fischer, A. Fonari, H. Fruchtl, L. Gagliardi,
      J. Garza, N. Gawande, S. Ghosh, K. Glaesemann, A. W. Gotz, J. Hammond,
       V. Helms, E. D. Hermes, K. Hirao, S. Hirata, M. Jacquelin, L. Jensen,
   B. G. Johnson, H. Jonsson, R. A. Kendall, M. Klemm, R. Kobayashi, V. Konkov,
      S. Krishnamoorthy, M. Krishnan, Z. Lin, R. D. Lins, R. J. Littlefield,
      A. J. Logsdail, K. Lopata, W. Ma, A. V. Marenich, J. Martin del Campo,
   D. Mejia-Rodriguez, J. E. Moore, J. M. Mullin, T. Nakajima, D. R. Nascimento,
    J. A. Nichols, P. J. Nichols, J. Nieplocha, A. Otero-de-la-Roza, B. Palmer,
    A. Panyala, T. Pirojsirikul, B. Peng, R. Peverati, J. Pittner, L. Pollack,
   R. M. Richard, P. Sadayappan, G. C. Schatz, W. A. Shelton, D. W. Silverstein,
   D. M. A. Smith, T. A. Soares, D. Song, M. Swart, H. L. Taylor, G. S. Thomas,
            V. Tipparaju, D. G. Truhlar, K. Tsemekhman, T. Van Voorhis,
      A. Vazquez-Mayagoitia, P. Verma, O. Villa, A. Vishnu, K. D. Vogiatzis,
        D. Wang, J. H. Weare, M. J. Williamson, T. L. Windus, K. Wolinski,
        A. T. Wong, Q. Wu, C. Yang, Q. Yu, M. Zacharias, Z. Zhang, Y. Zhao,
                                and R. J. Harrison
                        "NWChem: Past, present, and future
                         J. Chem. Phys. 152, 184102 (2020)
                               doi:10.1063/5.0004997

                                      AUTHORS
                                      -------
  E. Apra, E. J. Bylaska, N. Govind, K. Kowalski, M. Valiev, D. Mejia-Rodriguez,
       A. Kunitsa, N. P. Bauman, A. Panyala, W. A. de Jong, T. P. Straatsma,
   H. J. J. van Dam, D. Wang, T. L. Windus, J. Hammond, J. Autschbach, A. Woods,
    K. Bhaskaran-Nair, J. Brabec, K. Lopata, S. A. Fischer, S. Krishnamoorthy,
     M. Jacquelin, W. Ma, M. Klemm, O. Villa, Y. Chen, V. Anisimov, F. Aquino,
     S. Hirata, M. T. Hackler, E. Hermes, L. Jensen, J. E. Moore, J. C. Becca,
      V. Konjkov, T. Risthaus, M. Malagoli, A. Marenich, A. Otero-de-la-Roza,
        J. Mullin, P. Nichols, R. Peverati, J. Pittner, Y. Zhao, P.-D. Fan,
        A. Fonari, M. J. Williamson, R. J. Harrison, J. R. Rehr, M. Dupuis,
     D. Silverstein, D. M. A. Smith, J. Nieplocha, V. Tipparaju, M. Krishnan,
     B. E. Van Kuiken, A. Vazquez-Mayagoitia, M. Swart, Q. Wu, T. Van Voorhis,
     A. A. Auer, M. Nooijen, L. D. Crosby, E. Brown, G. Cisneros, G. I. Fann,
   H. Fruchtl, J. Garza, K. Hirao, R. A. Kendall, J. A. Nichols, K. Tsemekhman,
    K. Wolinski, J. Anchell, D. E. Bernholdt, P. Borowski, T. Clark, D. Clerc,
   H. Dachsel, M. J. O. Deegan, K. Dyall, D. Elwood, E. Glendening, M. Gutowski,
   A. C. Hess, J. Jaffe, B. G. Johnson, J. Ju, R. Kobayashi, R. Kutteh, Z. Lin,
   R. Littlefield, X. Long, B. Meng, T. Nakajima, S. Niu, L. Pollack, M. Rosing,
   K. Glaesemann, G. Sandrone, M. Stave, H. Taylor, G. Thomas, J. H. van Lenthe,
                               A. T. Wong, Z. Zhang.

 Total times  cpu:       12.5s     wall:       15.3s
