 argument  1 = /home/aditisingh4812/nw_chem/nwchem-run/nwchem-run/tddft/open/open_atom/geom-MOL/li.nw
                                         
                                         


             Northwest Computational Chemistry Package (NWChem) 7.2.3
             --------------------------------------------------------


                    Environmental Molecular Sciences Laboratory
                       Pacific Northwest National Laboratory
                                Richland, WA 99352

                              Copyright (c) 1994-2022
                       Pacific Northwest National Laboratory
                            Battelle Memorial Institute

             NWChem is an open-source computational chemistry package
                        distributed under the terms of the
                      Educational Community License (ECL) 2.0
             A copy of the license is included with this distribution
                              in the LICENSE.TXT file

                                  ACKNOWLEDGMENT
                                  --------------

            This software and its documentation were developed at the
            EMSL at Pacific Northwest National Laboratory, a multiprogram
            national laboratory, operated for the U.S. Department of Energy
            by Battelle under Contract Number DE-AC05-76RL01830. Support
            for this work was provided by the Department of Energy Office
            of Biological and Environmental Research, Office of Basic
            Energy Sciences, and the Office of Advanced Scientific Computing.


           Job information
           ---------------

    hostname        = p16
    program         = /home/aditisingh4812/nw_chem/nwchem-7.2.3-release.revision-d690e065-srconly.2024-08-27/nwchem-7.2.3/bin/LINUX64/nwchem
    date            = Tue Apr 15 00:12:17 2025

    compiled        = Mon_Apr_07_18:51:54_2025
    source          = /home/aditisingh4812/nw_chem/nwchem-7.2.3-release.revision-d690e065-srconly.2024-08-27/nwchem-7.2.3
    nwchem branch   = 7.2.3
    nwchem revision = d690e065
    ga revision     = 5.8.0
    use scalapack   = F
    input           = /home/aditisingh4812/nw_chem/nwchem-run/nwchem-run/tddft/open/open_atom/geom-MOL/li.nw
    prefix          = li.
    data base       = ./li.db
    status          = startup
    nproc           =        8
    time left       =     -1s



           Memory information
           ------------------

    heap     = 2621439998 doubles =  20000.0 Mbytes
    stack    = 2621439995 doubles =  20000.0 Mbytes
    global   = 6553600000 doubles =  50000.0 Mbytes (distinct from heap & stack)
    total    = ********** doubles =  90000.0 Mbytes
    verify   = yes
    hardfail = no 


           Directory information
           ---------------------

  0 permanent = .
  0 scratch   = .




                                NWChem Input Module
                                -------------------



 Scaling coordinates for geometry "geometry" by  1.889725989
 (inverse scale =  0.529177249)



                             Geometry "geometry" -> ""
                             -------------------------

 Output coordinates in angstroms (scale by  1.889725989 to convert to a.u.)

  No.       Tag          Charge          X              Y              Z
 ---- ---------------- ---------- -------------- -------------- --------------
    1 Li                   3.0000     0.00000000     0.00000000     0.00000000

      Atomic Mass 
      ----------- 

      Li                 7.016000


 Effective nuclear repulsion energy (a.u.)       0.0000000000

            Nuclear Dipole moment (a.u.) 
            ----------------------------
        X                 Y               Z
 ---------------- ---------------- ----------------
     0.0000000000     0.0000000000     0.0000000000


            XYZ format geometry
            -------------------
     1
 geometry
 Li                    0.00000000     0.00000000     0.00000000



 Summary of "ao basis" -> "" (cartesian)
 ------------------------------------------------------------------------------
       Tag                 Description            Shells   Functions and Types
 ---------------- ------------------------------  ------  ---------------------
 *                        aug-cc-pVTZ                 on all atoms 


  pbe96 is a nonlocal functional; adding pw91lda local functional. 

                                 NWChem DFT Module
                                 -----------------


                      Basis "ao basis" -> "ao basis" (cartesian)
                      -----
  Li (Lithium)
  ------------
            Exponent  Coefficients 
       -------------- ---------------------------------------------------------
  1 S  5.98800000E+03  0.000133
  1 S  8.98900000E+02  0.001025
  1 S  2.05900000E+02  0.005272
  1 S  5.92400000E+01  0.020929
  1 S  1.98700000E+01  0.066340
  1 S  7.40600000E+00  0.165775
  1 S  2.93000000E+00  0.315038
  1 S  1.18900000E+00  0.393523
  1 S  4.79800000E-01  0.190870

  2 S  5.98800000E+03 -0.000021
  2 S  8.98900000E+02 -0.000161
  2 S  2.05900000E+02 -0.000820
  2 S  5.92400000E+01 -0.003326
  2 S  1.98700000E+01 -0.010519
  2 S  7.40600000E+00 -0.028097
  2 S  2.93000000E+00 -0.055936
  2 S  1.18900000E+00 -0.099237
  2 S  4.79800000E-01 -0.112189

  3 S  7.50900000E-02  1.000000

  4 S  2.83200000E-02  1.000000

  5 S  7.60000000E-03  1.000000

  6 P  3.26600000E+00  0.008630
  6 P  6.51100000E-01  0.047538
  6 P  1.69600000E-01  0.209772

  7 P  5.57800000E-02  1.000000

  8 P  2.05000000E-02  1.000000

  9 P  9.10000000E-03  1.000000

 10 D  1.87400000E-01  1.000000

 11 D  8.01000000E-02  1.000000

 12 D  3.71000000E-02  1.000000

 13 F  1.82900000E-01  1.000000

 14 F  8.16000000E-02  1.000000



 Summary of "ao basis" -> "ao basis" (cartesian)
 ------------------------------------------------------------------------------
       Tag                 Description            Shells   Functions and Types
 ---------------- ------------------------------  ------  ---------------------
 Li                       aug-cc-pVTZ               14       55   5s4p3d2f




 Summary of "ao basis" -> "ao basis" (cartesian)
 ------------------------------------------------------------------------------
       Tag                 Description            Shells   Functions and Types
 ---------------- ------------------------------  ------  ---------------------
 Li                       aug-cc-pVTZ               14       55   5s4p3d2f




                         Geometry "geometry" -> "geometry"
                         ---------------------------------

 Output coordinates in angstroms (scale by  1.889725989 to convert to a.u.)

  No.       Tag          Charge          X              Y              Z
 ---- ---------------- ---------- -------------- -------------- --------------
    1 Li                   3.0000     0.00000000     0.00000000     0.00000000

      Atomic Mass 
      ----------- 

      Li                 7.016000


 Effective nuclear repulsion energy (a.u.)       0.0000000000

            Nuclear Dipole moment (a.u.) 
            ----------------------------
        X                 Y               Z
 ---------------- ---------------- ----------------
     0.0000000000     0.0000000000     0.0000000000


                      Basis "ao basis" -> "ao basis" (cartesian)
                      -----
  Li (Lithium)
  ------------
            Exponent  Coefficients 
       -------------- ---------------------------------------------------------
  1 S  5.98800000E+03  0.064619
  1 S  8.98900000E+02  0.120104
  1 S  2.05900000E+02  0.204535
  1 S  5.92400000E+01  0.318977
  1 S  1.98700000E+01  0.445628
  1 S  7.40600000E+00  0.531197
  1 S  2.93000000E+00  0.503573
  1 S  1.18900000E+00  0.319820
  1 S  4.79800000E-01  0.078538

  2 S  5.98800000E+03 -0.037675
  2 S  8.98900000E+02 -0.069659
  2 S  2.05900000E+02 -0.117469
  2 S  5.92400000E+01 -0.187176
  2 S  1.98700000E+01 -0.260910
  2 S  7.40600000E+00 -0.332441
  2 S  2.93000000E+00 -0.330149
  2 S  1.18900000E+00 -0.297802
  2 S  4.79800000E-01 -0.170456

  3 S  7.50900000E-02  0.102234

  4 S  2.83200000E-02  0.049202

  5 S  7.60000000E-03  0.018345

  6 P  3.26600000E+00  0.222451
  6 P  6.51100000E-01  0.163232
  6 P  1.69600000E-01  0.134040

  7 P  5.57800000E-02  0.038640

  8 P  2.05000000E-02  0.011057

  9 P  9.10000000E-03  0.004006

 10 D  1.87400000E-01  0.087853

 11 D  8.01000000E-02  0.019850

 12 D  3.71000000E-02  0.005162

 13 F  1.82900000E-01  0.032206

 14 F  8.16000000E-02  0.005239



    Basis function labels
    ---------------------
       No.  Atm El Type
       ---  --- -- ----
        1    1 Li s          
        2    1 Li s          
        3    1 Li s          
        4    1 Li s          
        5    1 Li s          
        6    1 Li px         
        7    1 Li py         
        8    1 Li pz         
        9    1 Li px         
       10    1 Li py         
       11    1 Li pz         
       12    1 Li px         
       13    1 Li py         
       14    1 Li pz         
       15    1 Li px         
       16    1 Li py         
       17    1 Li pz         
       18    1 Li dxx        
       19    1 Li dxy        
       20    1 Li dxz        
       21    1 Li dyy        
       22    1 Li dyz        
       23    1 Li dzz        
       24    1 Li dxx        
       25    1 Li dxy        
       26    1 Li dxz        
       27    1 Li dyy        
       28    1 Li dyz        
       29    1 Li dzz        
       30    1 Li dxx        
       31    1 Li dxy        
       32    1 Li dxz        
       33    1 Li dyy        
       34    1 Li dyz        
       35    1 Li dzz        
       36    1 Li fxxx       
       37    1 Li fxxy       
       38    1 Li fxxz       
       39    1 Li fxyy       
       40    1 Li fxyz       
       41    1 Li fxzz       
       42    1 Li fyyy       
       43    1 Li fyyz       
       44    1 Li fyzz       
       45    1 Li fzzz       
       46    1 Li fxxx       
       47    1 Li fxxy       
       48    1 Li fxxz       
       49    1 Li fxyy       
       50    1 Li fxyz       
       51    1 Li fxzz       
       52    1 Li fyyy       
       53    1 Li fyyz       
       54    1 Li fyzz       
       55    1 Li fzzz       
  int_init: cando_txs set to always be  F

 Schwarz integral screening summary 
 ---------------------------------- 

        No. of atom pairs =       1
       No. of shell pairs =     105

 Atomic screening 

   value      no.     value      no.     value      no.     value      no.   
  -------- ------    -------- ------    -------- ------    -------- ------   
  0.00D+00      0    1.00D-13      0    1.00D-12      0    1.00D-11      0
  1.00D-10      0    1.00D-09      0    1.00D-08      0    1.00D-07      0
  1.00D-06      0    1.00D-05      0    1.00D-04      0    1.00D-03      0
  1.00D-02      0    1.00D-01      0    1.00D+00      1    1.00D+01      0


 Shell screening 

   value      no.     value      no.     value      no.     value      no.   
  -------- ------    -------- ------    -------- ------    -------- ------   
  0.00D+00      0    1.00D-13      0    1.00D-12      0    1.00D-11      0
  1.00D-10      0    1.00D-09      0    1.00D-08      0    1.00D-07      0
  1.00D-06      0    1.00D-05      0    1.00D-04      0    1.00D-03      0
  1.00D-02      9    1.00D-01     47    1.00D+00     49    1.00D+01      0


  Caching 1-el integrals 
  atom                     1  - neighbor  & S                     1   10.000000000000000       exp AB    7.6000000000000061E-003   7.6000000000000061E-003
 zmins =     0.007600000    0.007600000 lprod =   0 range =        37.46 acc   0.10D-07
 sh     0.000000000
  Center:                     1  Radial Pts. & Wghts. 
    1        0.000010156           3.1421842E-15
    2        0.000081245           8.0441009E-13
    3        0.000274203           2.0616911E-11
    4        0.000649975           2.0595137E-10
    5        0.001269520           1.2277112E-09
    6        0.002193827           5.2798662E-09
    7        0.003483931           1.8126098E-08
    8        0.005200931           5.2769434E-08
    9        0.007406012           1.3545207E-07
   10        0.010160475           3.1482863E-07
   11        0.013525767           6.7529734E-07
   12        0.017563512           1.3556222E-06
   13        0.022335552           2.5741367E-06
   14        0.027903987           4.6619888E-06
   15        0.034331221           8.1060714E-06
   16        0.041680012           1.3603482E-05
   17        0.050013526           2.2129578E-05
   18        0.059395394           3.5021946E-05
   19        0.069889771           5.4082874E-05
   20        0.081561412           8.1703232E-05
   21        0.094475734           1.2101102E-04
   22        0.108698896           1.7604828E-04
   23        0.124297882           2.5198039E-04
   24        0.141340586           3.5534259E-04
   25        0.159895908           4.9432877E-04
   26        0.180033848           6.7912865E-04
   27        0.201825617           9.2232001E-04
   28        0.225343745           1.2393237E-03
   29        0.250662206           1.6489302E-03
   30        0.277856540           2.1739075E-03
   31        0.307003996           2.8417022E-03
   32        0.338183674           3.6852463E-03
   33        0.371476682           4.7438851E-03
   34        0.406966301           6.0644435E-03
   35        0.444738170           7.7024502E-03
   36        0.484880469           9.7235433E-03
   37        0.527484131           1.2205083E-02
   38        0.572643060           1.5238004E-02
   39        0.620454368           1.8928940E-02
   40        0.671018636           2.3402663E-02
   41        0.724440180           2.8804892E-02
   42        0.780827360           3.5305514E-02
   43        0.840292896           4.3102298E-02
   44        0.902954216           5.2425164E-02
   45        0.968933843           6.3541118E-02
   46        1.038359799           7.6759936E-02
   47        1.111366057           9.2440741E-02
   48        1.188093031           1.1099962E-01
   49        1.268688110           1.3291844E-01
   50        1.353306243           1.5875512E-01
   51        1.442110581           1.8915551E-01
   52        1.535273186           2.2486735E-01
   53        1.632975803           2.6675645E-01
   54        1.735410720           3.1582571E-01
   55        1.842781719           3.7323742E-01
   56        1.955305125           4.4033946E-01
   57        2.073210973           5.1869619E-01
   58        2.196744312           6.1012497E-01
   59        2.326166659           7.1673952E-01
   60        2.461757623           8.4100131E-01
   61        2.603816731           9.8578107E-01
   62        2.752665490           1.1544322E+00
   63        2.908649703           1.3508791E+00
   64        3.072142103           1.5797236E+00
   65        3.243545340           1.8463736E+00
   66        3.423295394           2.1571998E+00
   67        3.611865475           2.5197264E+00
   68        3.809770506           2.9428658E+00
   69        4.017572300           3.4372073E+00
   70        4.235885546           4.0153749E+00
   71        4.465384789           4.6924730E+00
   72        4.706812581           5.4866462E+00
   73        4.960989069           6.4197840E+00
   74        5.228823322           7.5184171E+00
   75        5.511326795           8.8148646E+00
   76        5.809629437           1.0348714E+01
   77        6.124999084           1.2168744E+01
   78        6.458864979           1.4335455E+01
   79        6.812846529           1.6924421E+01
   80        7.188788744           2.0030783E+01
   81        7.588806336           2.3775346E+01
   82        8.015339134           2.8312962E+01
   83        8.471222494           3.3844205E+01
   84        8.959777852           4.0631914E+01
   85        9.484930764           4.9025012E+01
   86       10.051367086           5.9493502E+01
   87       10.664743121           7.2680986E+01
   88       11.331973778           8.9485453E+01
   89       12.061636301           1.1118706E+02
   90       12.864550094           1.3965684E+02
   91       13.754633669           1.7771053E+02
   92       14.750214652           2.2973535E+02
   93       15.876114610           3.0286012E+02
   94       17.167133339           4.0928402E+02
   95       18.674237266           5.7129605E+02
   96       20.476441186           8.3326476E+02
   97       22.706117531           1.2945150E+03
   98       25.611418979           2.2191488E+03
   99       29.749457348           4.5378623E+03
  100       36.897931782           1.4103784E+04
     irreducible set of Lebedev Angular points ;
  0.009523809523810  1.000000000000000  0.000000000000000  0.000000000000000
  0.032142857142857  0.577350269189626  0.577350269189626  0.577350269189626
  0.028571428571429  0.459700843380983  0.000000000000000  0.888073833977115
   total no. of   reducible points:  38; test:  1.00000000
  0.012698412698413  1.000000000000000  0.000000000000000  0.000000000000000
  0.022574955908289  0.707106781186547  0.707106781186547  0.000000000000000
  0.021093750000000  0.577350269189626  0.577350269189626  0.577350269189626
  0.020173335537919  0.301511344577764  0.301511344577764  0.904534033733291
   total no. of   reducible points:  50; test:  1.00000000
  0.000513067179734  1.000000000000000  0.000000000000000  0.000000000000000
  0.016604069565742  0.707106781186547  0.707106781186547  0.000000000000000
 -0.029586038961039  0.577350269189626  0.577350269189626  0.577350269189626
  0.026576207082159  0.480384461415261  0.480384461415261  0.733799385705343
  0.016522170993716  0.320772648980776  0.000000000000000  0.947156221362588
   total no. of   reducible points:  74; test:  1.00000000
  0.011544011544012  1.000000000000000  0.000000000000000  0.000000000000000
  0.011943909085856  0.577350269189626  0.577350269189626  0.577350269189626
  0.011110555710603  0.369602846454150  0.369602846454150  0.852518311701268
  0.011876501294537  0.694354006602666  0.694354006602666  0.189063552885395
  0.011812303746904  0.374243039090341  0.000000000000000  0.927330657151172
   total no. of   reducible points:  86; test:  1.00000000
  0.003828270494937  1.000000000000000  0.000000000000000  0.000000000000000
  0.009793737512488  0.577350269189626  0.577350269189626  0.577350269189626
  0.008211737283191  0.185115635344736  0.185115635344736  0.965124035086594
  0.009942814891178  0.690421048382292  0.690421048382292  0.215957291845848
  0.009595471336071  0.395689473055942  0.395689473055942  0.828769981252592
  0.009694996361663  0.478369028812150  0.000000000000000  0.878158910604066
   total no. of   reducible points: 110; test:  1.00000000
  0.000599631368862  1.000000000000000  0.000000000000000  0.000000000000000
  0.007372999718621  0.707106781186547  0.707106781186547  0.000000000000000
  0.007210515360144  0.577350269189626  0.577350269189626  0.577350269189626
  0.007116355493118  0.676441040011426  0.676441040011426  0.291298882209527
  0.006753829486314  0.417496122796545  0.417496122796545  0.807089818359583
  0.007574394159054  0.157467667203908  0.157467667203908  0.974888643677173
  0.006991087353303  0.140355381171318  0.449332832326956  0.882270011260323
   total no. of   reducible points: 146; test:  1.00000000
  0.005544842902037  1.000000000000000  0.000000000000000  0.000000000000000
  0.006071332770671  0.707106781186547  0.707106781186547  0.000000000000000
  0.006383674773515  0.577350269189626  0.577350269189626  0.577350269189626
  0.005183387587748  0.255125262111413  0.255125262111413  0.932642590312691
  0.006317929009814  0.674360146036277  0.674360146036277  0.300793595137701
  0.006201670006589  0.431891069671941  0.431891069671941  0.791795559393492
  0.005477143385137  0.261393136033599  0.000000000000000  0.965232421976448
  0.005968383987681  0.499045316179604  0.144663074432512  0.854415804684659
   total no. of   reducible points: 170; test:  1.00000000
  0.001782340447245  1.000000000000000  0.000000000000000  0.000000000000000
  0.005716905949977  0.707106781186547  0.707106781186547  0.000000000000000
  0.005573383178849  0.577350269189626  0.577350269189626  0.577350269189626
  0.005608704082588  0.671297344269523  0.671297344269523  0.314196994182586
  0.005158237711805  0.289246562757544  0.289246562757544  0.912509096867474
  0.005518771467274  0.444693317871744  0.444693317871744  0.777493219314767
  0.004106777028169  0.129933544765007  0.129933544765007  0.982972302707253
  0.005051846064615  0.345770219761128  0.000000000000000  0.938319218137592
  0.005530248916233  0.159041710538353  0.836036015482459  0.525118572443642
   total no. of   reducible points: 194; test:  1.00000000
 -0.055226399197273  1.000000000000000  0.000000000000000  0.000000000000000
  0.004450274607445  0.577350269189626  0.577350269189626  0.577350269189626
  0.004496841067921  0.449204468739761  0.449204468739761  0.772289253148364
  0.005049153450479  0.252041949021020  0.252041949021020  0.934317778845812
  0.003976408018052  0.698190665844724  0.698190665844724  0.158302205463478
  0.004401400650381  0.658740524346096  0.658740524346096  0.363485684956727
  0.017245443505444  0.040385440500977  0.040385440500977  0.998367683967727
  0.004231083095357  0.582384230971558  0.000000000000000  0.812913653173365
  0.005198069864064  0.354587739051869  0.000000000000000  0.935022745880593
  0.004695720972569  0.227218180899819  0.486466153588665  0.843636521068894
   total no. of   reducible points: 230; test:  1.00000000
 -0.001313769127327  1.000000000000000  0.000000000000000  0.000000000000000
 -0.002522728704859  0.707106781186547  0.707106781186547  0.000000000000000
  0.004186853881701  0.577350269189626  0.577350269189626  0.577350269189626
  0.005315167977811  0.703937339158548  0.703937339158548  0.094575076403713
  0.004047142377086  0.101252624857241  0.101252624857241  0.989694807462905
  0.004112482394407  0.464744872642054  0.464744872642054  0.753673939250816
  0.003595584899759  0.327742065497163  0.327742065497163  0.886098344997499
  0.004256131351428  0.662033866369997  0.662033866369997  0.351315128564633
  0.004229582700647  0.850650808352040  0.000000000000000  0.525731112119134
  0.004080914225781  0.323348454269290  0.115311201100970  0.939227929749916
  0.004071467593831  0.231479015871260  0.524493924092236  0.819343388819120
   total no. of   reducible points: 266; test:  1.00000000
  0.000854591172513  1.000000000000000  0.000000000000000  0.000000000000000
  0.003599119285026  0.577350269189626  0.577350269189626  0.577350269189626
  0.003449788424306  0.351564034557011  0.351564034557011  0.867643624544083
  0.003604822601420  0.656632941021961  0.656632941021961  0.371034178384821
  0.003576729661743  0.472905413258100  0.472905413258100  0.743452042987556
  0.002352101413689  0.096183085226148  0.096183085226148  0.990705621379408
  0.003108953122414  0.221964523629418  0.221964523629418  0.949454317226443
  0.003650045807677  0.701176641608955  0.701176641608955  0.129238672710514
  0.002982344963172  0.264415288706066  0.000000000000000  0.964408914879206
  0.003600820932216  0.571895589187896  0.000000000000000  0.820326419827759
  0.003571540554273  0.251003475177047  0.800072749407395  0.544867737258077
  0.003392312205006  0.123354853258333  0.412772408316853  0.902442529533000
   total no. of   reducible points: 302; test:  1.00000000
  0.003006796749454  1.000000000000000  0.000000000000000  0.000000000000000
  0.003050627745651  0.577350269189626  0.577350269189626  0.577350269189626
  0.001621104600289  0.706896546391232  0.706896546391232  0.024383301669356
  0.003005701484902  0.479468262571203  0.479468262571203  0.734996850587746
  0.002990992529654  0.192753315487802  0.192753315487802  0.962129055136014
  0.002982170644108  0.693035796132712  0.693035796132712  0.198501311223365
  0.002721564237311  0.360830211552009  0.360830211552009  0.860001812127547
  0.003033513795811  0.649848616149617  0.649848616149617  0.394199888605839
  0.003007949555219  0.193294501323034  0.000000000000000  0.981140782843257
  0.002881964603055  0.380049491989930  0.000000000000000  0.924966152698679
  0.002958357626536  0.289955882549957  0.793453785658232  0.535123047718276
  0.003036020026407  0.096841214551040  0.828080150668686  0.552182074349399
  0.002832187403926  0.183343464704166  0.907465826530513  0.378009189874487
   total no. of   reducible points: 350; test:  1.00000000
  0.000526589796822  1.000000000000000  0.000000000000000  0.000000000000000
  0.002548219972003  0.707106781186547  0.707106781186547  0.000000000000000
  0.002512317418927  0.577350269189626  0.577350269189626  0.577350269189626
  0.002530403801186  0.690934630750911  0.690934630750911  0.212646824707552
  0.002014279020919  0.177483605460916  0.177483605460916  0.967987158791473
  0.002501725168403  0.491434263778475  0.491434263778475  0.719016501040843
  0.002513267174598  0.645666470742426  0.645666470742426  0.407712664897770
  0.002302694782227  0.286128901030764  0.286128901030764  0.914472801120872
  0.001462495621595  0.075680843671780  0.075680843671780  0.994255912631278
  0.002445373437313  0.392725976336800  0.392725976336800  0.831584400419232
  0.002417442375639  0.881813287779429  0.000000000000000  0.471598691151316
  0.001910951282180  0.977642811118265  0.000000000000000  0.210272522857307
  0.002416930044325  0.205482369640304  0.868946032287241  0.450233038258263
  0.002512236854563  0.590515704892527  0.799927854385729  0.106801826075805
  0.002496644054553  0.555015236107681  0.771746262691590  0.310428403516654
  0.002236607760438  0.937180985855372  0.334436314534346  0.099217696364292
   total no. of   reducible points: 434; test:  1.00000000
  0.000309512129531  1.000000000000000  0.000000000000000  0.000000000000000
  0.001852379698597  0.577350269189626  0.577350269189626  0.577350269189626
  0.001871790639278  0.704095493822747  0.704095493822747  0.092190407076898
  0.001858812585438  0.680774406645524  0.680774406645524  0.270356088359165
  0.001852028828296  0.637254693925875  0.637254693925875  0.433373868777154
  0.001846715956151  0.504441970780036  0.504441970780036  0.700768575373573
  0.001818471778163  0.421576178401097  0.421576178401097  0.802836877335274
  0.001749564657281  0.331792073647212  0.331792073647212  0.883078727934133
  0.001617210647254  0.238473670142189  0.238473670142189  0.941414158220403
  0.001384737234852  0.145903644915776  0.145903644915776  0.978480583762694
  0.000976433116505  0.060950341155072  0.060950341155072  0.996278129754016
  0.001857161196774  0.611684344200988  0.000000000000000  0.791101929626902
  0.001705153996396  0.396475534819986  0.000000000000000  0.918045287711454
  0.001300321685886  0.172478200990772  0.000000000000000  0.985013335028002
  0.001842866472905  0.561026380862206  0.351828092773352  0.749310611904116
  0.001802658934377  0.474239284255198  0.263471665593795  0.840047488359050
  0.001849830560444  0.598412649788538  0.181664084036021  0.780320742479920
  0.001713904507107  0.379103540769556  0.172079522565688  0.909213475092374
  0.001555213603397  0.277867319058624  0.082130215819325  0.957102074310073
  0.001802239128009  0.503356427107512  0.089992058420749  0.859379855890721
   total no. of   reducible points: 590; test:  1.00000000
  0.000219294208818  1.000000000000000  0.000000000000000  0.000000000000000
  0.001436433617319  0.707106781186547  0.707106781186547  0.000000000000000
  0.001421940344336  0.577350269189626  0.577350269189626  0.577350269189626
  0.000679812351105  0.050872044105024  0.050872044105024  0.997408677652823
  0.000991318423529  0.122819879017883  0.122819879017883  0.984799753572301
  0.001180207833239  0.202689081440879  0.202689081440879  0.958036675983391
  0.001296599602081  0.284774515646429  0.284774515646429  0.915317950483155
  0.001365871427428  0.365671907897803  0.365671907897803  0.855901928697887
  0.001402988604775  0.442826488671347  0.442826488671347  0.779621319527635
  0.001418645563596  0.514061962724974  0.514061962724974  0.686644447264154
  0.001421376741852  0.630640121916680  0.630640121916680  0.452311920313658
  0.001423996475491  0.671688333202261  0.671688333202261  0.312521305001653
  0.001431554042179  0.697979268533688  0.697979268533688  0.160155803498829
  0.000925440149987  0.144686567419531  0.000000000000000  0.989477537495599
  0.001250239995054  0.339026347541122  0.000000000000000  0.940776878793759
  0.001394365843329  0.533580465126351  0.000000000000000  0.845749305193653
  0.001127089094672  0.069440243933494  0.235518789424233  0.969385863498432
  0.001345753760911  0.226900410952946  0.410218247404573  0.883310360522113
  0.001424957283317  0.080255746077753  0.621430241748161  0.779348105702661
  0.001261523341238  0.146799952789657  0.324528434571739  0.934414827052402
  0.001392547106053  0.157150776982473  0.522448218969663  0.838064133458312
  0.001418761677878  0.236570299315725  0.601754663408956  0.762840624604670
  0.001338366684480  0.077148158667657  0.434657551614116  0.897285336132833
  0.001393700862676  0.306293666621073  0.490882658903762  0.815609223203975
  0.001415914757467  0.382247737952479  0.564876814909950  0.731300793659766
   total no. of   reducible points: 770; test:  1.00000000
  0.000143829419053  1.000000000000000  0.000000000000000  0.000000000000000
  0.001125772288287  0.577350269189626  0.577350269189626  0.577350269189626
  0.000494802934195  0.042929635453413  0.042929635453413  0.998155345023847
  0.000735799010913  0.105142685408640  0.105142685408640  0.988883224354686
  0.000888913277130  0.175002486762309  0.175002486762309  0.968890220434707
  0.000988834783892  0.247765337965026  0.247765337965026  0.936602730407163
  0.001053299681709  0.320656712395596  0.320656712395596  0.891267942647606
  0.001092778807015  0.391652074984998  0.391652074984998  0.832596723702352
  0.001114389394063  0.459082587418762  0.459082587418762  0.760582905315251
  0.001123724788052  0.521456388841586  0.521456388841586  0.675400969108414
  0.001125239325244  0.625317024465420  0.625317024465420  0.466858905695743
  0.001126153271816  0.663792674452317  0.663792674452317  0.344613654237438
  0.001130286931124  0.691041039849830  0.691041039849830  0.211954151850184
  0.001134986534364  0.705290700745776  0.705290700745776  0.071624401449956
  0.000682336792711  0.123668676265799  0.000000000000000  0.992323565431490
  0.000945415816045  0.294077711446839  0.000000000000000  0.955781512496548
  0.001074429975386  0.469775384920765  0.000000000000000  0.882785980701182
  0.001129300086569  0.633456324113957  0.000000000000000  0.773778447257375
  0.000843688450090  0.059740486141813  0.202912875277752  0.977372722845310
  0.001075255720449  0.137576040847364  0.460262194248405  0.877058461865803
  0.001108577236864  0.339101652633629  0.503067399966204  0.794942299964208
  0.000956647532378  0.127167519143982  0.281760642244213  0.951020169374390
  0.001080663250717  0.269312074041351  0.433156129172016  0.860143461601762
  0.001126797131196  0.141978645260192  0.625616735858081  0.767102186220558
  0.001022568715358  0.067092846007383  0.379839521685916  0.922616110730809
  0.001108960267713  0.070577381832562  0.551750542142352  0.831017552413474
  0.001122790653436  0.278388847788215  0.602961915615919  0.747620610834086
  0.001032401847117  0.197957893891741  0.358960632958910  0.912118378409121
  0.001107249382284  0.208730706110327  0.534866643813548  0.818748536281022
  0.001121780048520  0.405512213787284  0.567499754607437  0.716591845467024
   total no. of   reducible points: 974; test:  1.00000000
  0.000110518923327  1.000000000000000  0.000000000000000  0.000000000000000
  0.000920523273809  0.707106781186547  0.707106781186547  0.000000000000000
  0.000913315978644  0.577350269189626  0.577350269189626  0.577350269189626
  0.000369042189802  0.037126364496571  0.037126364496571  0.998620681799919
  0.000560399092868  0.091400604122622  0.091400604122622  0.991610739722014
  0.000686529762928  0.153107785246991  0.153107785246991  0.976276606394685
  0.000772033855115  0.218092889166061  0.218092889166061  0.951247067480579
  0.000830154595889  0.283987453220018  0.283987453220018  0.915806886208668
  0.000868669255018  0.349117760096376  0.349117760096376  0.869616915181954
  0.000892707628585  0.412143146144431  0.412143146144431  0.812573722299916
  0.000906082023857  0.471899362714913  0.471899362714913  0.744729469632107
  0.000911977725494  0.527314545284234  0.527314545284234  0.666242253736104
  0.000912872013860  0.620947533244402  0.620947533244402  0.478380938076952
  0.000913071493569  0.656972271185729  0.656972271185729  0.369830866459426
  0.000915287378455  0.684178830907014  0.684178830907014  0.252583955700718
  0.000918743627432  0.701260433012363  0.701260433012363  0.128326186659723
  0.000517697731297  0.107238221547817  0.000000000000000  0.994233354821322
  0.000733114368210  0.258206895949697  0.000000000000000  0.966089643296119
  0.000846323283638  0.417275295530672  0.000000000000000  0.908780131681911
  0.000903112269425  0.570036691179250  0.000000000000000  0.821619237061433
  0.000648577845316  0.982798601826395  0.177177402261533  0.052106394770113
  0.000743503091098  0.962424923032623  0.247571646342629  0.111564095715648
  0.000799852789184  0.940200799412881  0.335461628906649  0.059058888532354
  0.000810173149747  0.932082204014320  0.317361524661198  0.174655167757863
  0.000848338957459  0.904367419939330  0.409026842708536  0.121723505109599
  0.000855629925731  0.891240756007475  0.385429115066922  0.239027847938172
  0.000880320867974  0.867643562846271  0.493222118485128  0.062662506241542
  0.000881104818243  0.858197998604162  0.478532067592243  0.185750519454734
  0.000885028234127  0.839675362404986  0.450742259315706  0.302946697352898
  0.000902134229904  0.816528856402219  0.563212302076210  0.126777480068428
  0.000901009167711  0.801546937078353  0.543430356969390  0.249411216236224
  0.000902269293843  0.777356306907035  0.512351848641987  0.364983226059765
  0.000915801617469  0.766162121390039  0.639427963474910  0.064245492242208
  0.000913157800319  0.755358414353351  0.626980550902439  0.190601822277923
  0.000910781357948  0.734430575755950  0.603116169309631  0.311227594714961
  0.000910576025897  0.704383718402177  0.569370249846844  0.423864478152234
   total no. of   reducible points:1202; test:  1.00000000
  0.000077771607433  1.000000000000000  0.000000000000000  0.000000000000000
  0.000755764641300  0.577350269189626  0.577350269189626  0.577350269189626
  0.000284163380609  0.032292906634139  0.032292906634139  0.998956623864238
  0.000437441912705  0.080367332714622  0.080367332714622  0.993520097262594
  0.000541717474087  0.135428996053165  0.135428996053165  0.981487633165117
  0.000614800089136  0.193896386111443  0.193896386111443  0.961669580940275
  0.000666439448580  0.253734371501127  0.253734371501127  0.933401166400522
  0.000702503935692  0.313525143475257  0.313525143475257  0.896328047546008
  0.000726851178925  0.372155833937534  0.372155833937534  0.850294108254619
  0.000742263753421  0.428680957519570  0.428680957519570  0.795276853253136
  0.000750954503584  0.482251012828299  0.482251012828299  0.731346649169981
  0.000754853505772  0.532067933356626  0.532067933356626  0.658640591360127
  0.000755408896977  0.617299819539427  0.617299819539427  0.487731345715221
  0.000755314717444  0.651067984912748  0.651067984912748  0.390155043595885
  0.000756476765329  0.677731525168736  0.677731525168736  0.285236672931301
  0.000758799180852  0.696310941064874  0.696310941064874  0.174075117999957
  0.000760826183203  0.705893500983175  0.705893500983175  0.058555363028785
  0.000402168044787  0.995554619409186  0.000000000000000  0.094185985013862
  0.000580487179395  0.973411590179421  0.000000000000000  0.229063039585986
  0.000679215195595  0.927569373238863  0.000000000000000  0.373650983980055
  0.000733674121129  0.856802242279510  0.000000000000000  0.515645147000147
  0.000758186630099  0.762349555371937  0.000000000000000  0.647165477620840
  0.000753825785980  0.570752290889222  0.438702803988950  0.694104943230444
  0.000748351724705  0.519646338840308  0.385890841476262  0.762270254565011
  0.000737176366111  0.464633753121535  0.330193737234385  0.821637128756598
  0.000718344889576  0.406390169755769  0.272542357356378  0.872105322408083
  0.000689581552982  0.345632946664309  0.213951023749525  0.913653558859526
  0.000648010580179  0.283139512105033  0.155592230978665  0.946373644151191
  0.000589755889659  0.219768202292533  0.098928789796861  0.970523071240677
  0.000509570884925  0.156469609865035  0.045986429106755  0.986611630545015
  0.000753690642891  0.602735667372129  0.337662514017343  0.722975616397235
  0.000747250596558  0.549603232025510  0.282230130972799  0.786309379645309
  0.000734301713228  0.492170775523457  0.224863234259254  0.840954489612314
  0.000713087158218  0.430942299859848  0.166622472345648  0.886862833757808
  0.000681702203211  0.366410818231367  0.108696490182217  0.924082347686118
  0.000638094114560  0.299018905775844  0.052519897841201  0.952800794667682
  0.000755038137792  0.626872401314500  0.229752365755002  0.744476220506856
  0.000747864664014  0.570732414483461  0.172308060709380  0.802853936449496
  0.000733591872060  0.509636090196037  0.114023846539051  0.852801042441985
  0.000711012052766  0.443872993831246  0.056115220958825  0.894330949550573
  0.000757136397869  0.641997847108239  0.116417442314087  0.757816431224233
  0.000748990832908  0.581721806180261  0.057975895314452  0.811319009870262
   total no. of   reducible points:1454; test:  1.00000000
  qrot: 

              1        2        3      
    1    1.0000   0.0000   0.0000
    2    0.0000   1.0000   0.0000
    3    0.0000   0.0000   1.0000
  me                     0   done genpts
  me                     1   done genpts
  me                     2   done genpts
  me                     3   done genpts
  me                     4   done genpts
  me                     5   done genpts
  me                     6   done genpts
  me                     7   done genpts
  me                     0   done uprt
  me                     1   done uprt
  me                     2   done uprt
  me                     3   done uprt
  me                     4   done uprt
  me                     5   done uprt
  me                     6   done uprt
  me                     7   done uprt
  me                     0  done mem
  me                     1  done mem
  me                     2  done mem
  me                     3  done mem
  me                     4  done mem
  me                     5  done mem
  me                     6  done mem
  me                     7  done mem
  dftinpanae: itol2e                     8  iaoacc                    14  tol_rho    1.0000000000000000E-010

            General Information
            -------------------
          SCF calculation type: DFT
          Wavefunction type:  spin polarized.
          No. of atoms     :     1
          No. of electrons :     3
           Alpha electrons :     2
            Beta electrons :     1
          Charge           :     0
          Spin multiplicity:     2
          Use of symmetry is: off; symmetry adaption is: off
          Maximum number of iterations:  50
          AO basis - number of functions:    55
                     number of shells:    14
          Convergence on energy requested:  1.00D-06
          Convergence on density requested:  1.00D-05
          Convergence on gradient requested:  5.00D-04

              XC Information
              --------------
                     Hartree-Fock (Exact) Exchange  1.000          
                     LC-wPBE(h)Exchange Functional  1.000          
            Perdew 1991 LDA Correlation Functional  1.000 local    
           PerdewBurkeErnz. Correlation Functional  1.000 non-local

           Range-Separation Parameters        
           ---------------------------
           Alpha           :  0.00
           Beta            :  1.00
           Gamma           :  0.40
           Short-Range HF  :     F

             Grid Information
             ----------------
          Grid used for XC integration:  xfine     
          Radial quadrature: Mura-Knowles        
          Angular quadrature: Lebedev. 
          Tag              B.-S. Rad. Rad. Pts. Rad. Cut. Ang. Pts.
          ---              ---------- --------- --------- ---------
          Li                  1.45      100          20.0      1454
          Grid pruning is: on 
          Number of quadrature shells:   100
          Spatial weights used:  Erf1

          Convergence Information
          -----------------------
          Convergence aids based upon iterative change in 
          total energy or number of iterations. 
          Levelshifting, if invoked, occurs when the 
          HOMO/LUMO gap drops below (HL_TOL):  1.00D-02
          DIIS, if invoked, will attempt to extrapolate 
          using up to (NFOCK): 10 stored Fock matrices.

                    Damping( 0%)  Levelshifting(0.5)       DIIS
                  --------------- ------------------- ---------------
          dE  on:    start            ASAP                start   
          dE off:    2 iters         50 iters            50 iters 


      Screening Tolerance Information
      -------------------------------
          Density screening/tol_rho:  1.00D-10
          AO Gaussian exp screening on grid/accAOfunc:  14
          CD Gaussian exp screening on grid/accCDfunc:  20
          XC Gaussian exp screening on grid/accXCfunc:  20
          Schwarz screening/accCoul:  1.00D-08



                         Geometry "geometry" -> "geometry"
                         ---------------------------------

 Output coordinates in angstroms (scale by  1.889725989 to convert to a.u.)

  No.       Tag          Charge          X              Y              Z
 ---- ---------------- ---------- -------------- -------------- --------------
    1 Li                   3.0000     0.00000000     0.00000000     0.00000000

      Atomic Mass 
      ----------- 

      Li                 7.016000


 Effective nuclear repulsion energy (a.u.)       0.0000000000

            Nuclear Dipole moment (a.u.) 
            ----------------------------
        X                 Y               Z
 ---------------- ---------------- ----------------
     0.0000000000     0.0000000000     0.0000000000

  
  CAM type calculations without CDFIT are
  only available with the direct option.
  Forcing Direct SCF
  


     <<<<<<    Before call to DFT_SCF.    >>>>>>
     <<<<<< date:  Apr 15  time: 00:12:18 >>>>>>


 Setting tolerance for linear dependence to 1.00D-05



 Setting tolerance for linear dependence to 1.00D-05


 Setting tolerance for linear dependence to 1.00D-05

 Setting tolerance for linear dependence to 1.00D-05

 Setting tolerance for linear dependence to 1.00D-05
 Setting tolerance for linear dependence to 1.00D-05
 Setting tolerance for linear dependence to 1.00D-05
 Setting tolerance for linear dependence to 1.00D-05
  lindep tolerance =    1.0000000000000001E-005
  lindep tolerance =    1.0000000000000001E-005
  lindep tolerance =    1.0000000000000001E-005
  lindep tolerance =    1.0000000000000001E-005
  lindep tolerance =    1.0000000000000001E-005
  lindep tolerance =    1.0000000000000001E-005
  lindep tolerance =    1.0000000000000001E-005
  lindep tolerance =    1.0000000000000001E-005


     <<<<<<    Before 3c-2e initialize.   >>>>>>
     <<<<<< date:  Apr 15  time: 00:12:18 >>>>>>


 Setting fock-build task_bf   :      -1
                    maxquartet:   10000
                    maxeri    :  129600
                    maxscr    :       0
                    intacc    : 0.0D+00
                    denscreen : T
                    dentol    : 1.0D-06


      Superposition of Atomic Density Guess
      -------------------------------------

 Sum of atomic energies:          -7.43268205

      Non-variational initial energy
      ------------------------------

 Total energy =      -7.374202
 1-e energy   =      -9.713457
 2-e energy   =       2.339255
 HOMO         =      -0.082264
 LUMO         =       0.016499


 Setting fock-build task_bf   :      -1
                    maxquartet:   10000
                    maxeri    :  129600
                    maxscr    :       0
                    intacc    : 0.0D+00
                    denscreen : T
                    dentol    : 1.0D-06


 Wrote molecular orbitals to ./li.movecs

  WARNING: movecs_in_org=atomic not equal to movecs_in=./li.movecs
   Time after variat. SCF:      0.7

 Setting fock-build task_bf   :      -1
                    maxquartet:   10000
                    maxeri    :  129600
                    maxscr    :       0
                    intacc    : 0.0D+00
                    denscreen : T
                    dentol    : 1.0D-06

   Time prior to 1st pass:      0.7


     <<<<<<      Before SCF iter loop.    >>>>>>
     <<<<<< date:  Apr 15  time: 00:12:18 >>>>>>

           DAMPING=T LEVELSHIFTING=F DIISING=T
          itol2e= 8 iAOacc=12 iXCacc=20


     <<<<<<            calling 1-e int    >>>>>>
     <<<<<< date:  Apr 15  time: 00:12:18 >>>>>>

    Kinetic Matrix Time:          0.0s

           Kinetic energy =      7.386956757029

    Potential Matrix Time:          0.0s


     <<<<<<    Before call to GETVXC.     >>>>>>
     <<<<<< date:  Apr 15  time: 00:12:18 >>>>>>



     <<<<<<    Before call to fock_2e.    >>>>>>
     <<<<<< date:  Apr 15  time: 00:12:18 >>>>>>



     <<<<<<     After call to fock_2e.    >>>>>>
     <<<<<< date:  Apr 15  time: 00:12:18 >>>>>>

    Fock_2e Build Time:          0.0s
  *** grid_quadv0:                    calc_type:                    1
  *** grid_quadv0:                    grid_written: F
  *** grid_quadv0:                    grad: T
  *** grid_quadv0:                    kske: F
  *** grid_quadv0:                    kslap: F
  *** grid_quadv0:                    calc_type:                    1
  *** grid_quadv0:                    grid_written: F
  *** grid_quadv0:                    grad: T
  *** grid_quadv0:                    kske: F
  *** grid_quadv0:                    kslap: F
  *** grid_quadv0:                    do_scf: T
  *** grid_quadv0:                    fde_option:                    0
  *** grid_quadv0:                    n_per_rec:                 3070
  *** grid_quadv0:                    calc_type:                    1
  *** grid_quadv0:                    grid_written: F
  *** grid_quadv0:                    grad: T
  *** grid_quadv0:                    kske: F
  *** grid_quadv0:                    kslap: F
  *** grid_quadv0:                    calc_type:                    1
  *** grid_quadv0:                    grid_written: F
  *** grid_quadv0:                    grad: T
  *** grid_quadv0:                    kske: F
  *** grid_quadv0:                    kslap: F
  *** grid_quadv0:                    do_scf: T
  *** grid_quadv0:                    fde_option:                    0
  *** grid_quadv0:                    n_per_rec:                 3070
  *** grid_quadv0:                    calc_type:                    1
  *** grid_quadv0:                    grid_written: F
  *** grid_quadv0:                    grad: T
  *** grid_quadv0:                    kske: F
  *** grid_quadv0:                    kslap: F
  *** grid_quadv0:                    do_scf: T
  *** grid_quadv0:                    fde_option:                    0
  *** grid_quadv0:                    n_per_rec:                 3070
  *** grid_quadv0:                    calc_type:                    1
  *** grid_quadv0:                    grid_written: F
  *** grid_quadv0:                    grad: T
  *** grid_quadv0:                    kske: F
  *** grid_quadv0:                    kslap: F
  *** grid_quadv0:                    do_scf: T
  *** grid_quadv0:                    fde_option:                    0
  *** grid_quadv0:                    n_per_rec:                 3070
  *** grid_quadv0:                    do_scf: T
  *** grid_quadv0:                    fde_option:                    0
  *** grid_quadv0:                    n_per_rec:                 3070
  *** grid_quadv0:                    do_scf: T
  *** grid_quadv0:                    fde_option:                    0
  *** grid_quadv0:                    n_per_rec:                 3070
  *** grid_quadv0:                    calc_type:                    1
  *** grid_quadv0:                    grid_written: F
  *** grid_quadv0:                    grad: T
  *** grid_quadv0:                    kske: F
  *** grid_quadv0:                    kslap: F
  *** grid_quadv0:                    do_scf: T
  *** grid_quadv0:                    fde_option:                    0
  *** grid_quadv0:                    n_per_rec:                 3070
  *** grid_quadv0:                    calc_type:                    1
  *** grid_quadv0:                    grid_written: F
  *** grid_quadv0:                    grad: T
  *** grid_quadv0:                    kske: F
  *** grid_quadv0:                    kslap: F
  *** grid_quadv0:                    do_scf: T
  *** grid_quadv0:                    fde_option:                    0
  *** grid_quadv0:                    n_per_rec:                 3070
   0: nuse=   8 avail= 12500000Mb on .
   1: nuse=   8 avail= 12500000Mb on .
   2: nuse=   8 avail= 12500000Mb on .
   3: nuse=   8 avail= 12500000Mb on .
   4: nuse=   8 avail= 12500000Mb on .
   5: nuse=   8 avail= 12500000Mb on .
   6: nuse=   8 avail= 12500000Mb on .
   7: nuse=   8 avail= 12500000Mb on .
 l_cube input   11.00

  atom type   l_cube   no. cubes   segmts   rad   sub
 ----------- -------- ----------- -------- ----- -----
        1     10.57       282         7      37     8

 Grid_pts file          = ./li.gridpts.0
 Record size in doubles =  12289        No. of grid_pts per rec  =   3070
 Max. records in memory =      8        Max. recs in file   = 126656358

 me   0 NQTOTC NQ/cube   14621     107
 me   1 NQTOTC NQ/cube    8940     447
 me   2 NQTOTC NQ/cube    7206     266
 me   3 NQTOTC NQ/cube    8787     325
 me   4 NQTOTC NQ/cube    7182     422
 me   5 NQTOTC NQ/cube    6241     297
 me   6 NQTOTC NQ/cube    8190     455
 me   7 NQTOTC NQ/cube    8273     517

 XC quadr. integrated density :       3.000000 npts:    68799 nctrs:        1

    Fock_xc Build Time:          0.1s


     <<<<<<    Before call to GETVCOUL.   >>>>>>
     <<<<<< date:  Apr 15  time: 00:12:18 >>>>>>



     <<<<<<    End of parallel region.    >>>>>>
     <<<<<< date:  Apr 15  time: 00:12:18 >>>>>>

    Total Fock Matrix Build Time:          0.1s
 Etnew, Ecore, Ecoul, Exc(1), Exc(2), Totsic:   -7.4646079703564148       -9.6552651864336276        3.9911191489106534       -1.8004619328334406        0.0000000000000000        0.0000000000000000     
  delta =   -7.4646079703564148     
  delta =   -7.4646079703564148     
  delta =   -7.4646079703564148     
  delta =   -7.4646079703564148     


         Total DFT energy =       -7.464607970356
      One electron energy =       -9.655265186434
           Coulomb energy =        3.991119148911
    Exchange-Corr. energy =       -1.800461932833
 Nuclear repulsion energy =        0.000000000000

 Numeric. integr. density =        2.999999994865

     Total iterative time =      1.5s


  delta =   -7.4646079703564148     
  delta =   -7.4646079703564148     
  delta =   -7.4646079703564148     
  delta =   -7.4646079703564148     


     <<<<<<        calling diis driver    >>>>>>
     <<<<<< date:  Apr 15  time: 00:12:18 >>>>>>

 nhist                     1  pulay matrix 
   0.0000E+00
  -1.0000E+00   1.0353E-02


     <<<<<<         called diis driver    >>>>>>
     <<<<<< date:  Apr 15  time: 00:12:18 >>>>>>


 global array: fock transf[1:55,1:55],  handle: -940 

            1           2           3           4           5           6  
       ----------- ----------- ----------- ----------- ----------- -----------
   1       0.89942    -0.00000     0.00000     0.00000    -0.90040     0.00000
   2      -0.00000     1.73458    -0.00000    -0.00000    -0.00000    -0.00000
   3       0.00000    -0.00000     1.73458     0.00000     0.00000    -0.00000
   4       0.00000    -0.00000     0.00000     1.73458     0.00000     0.00000
   5      -0.90040    -0.00000     0.00000     0.00000     5.31689    -0.00000
   6       0.00000    -0.00000    -0.00000     0.00000    -0.00000     0.72205
   7       0.00000    -0.00000     0.00000    -0.00000     0.00000    -0.00000
   8       0.00000    -0.00000    -0.00000     0.00000     0.00000     0.00000
   9       0.00000    -0.00000     0.00000    -0.00000     0.00000     0.00000
  10       0.08510     0.00000    -0.00000    -0.00000     1.42041     0.00000
  11       0.00000    -0.10487     0.02791    -0.11022     0.00000    -0.00000
  12      -0.00000     0.05959    -0.11420    -0.08562    -0.00000     0.00000
  13       0.00000    -0.09683    -0.10051     0.06667     0.00000     0.00000
  14      -0.00000     0.00000    -0.00000     0.00000    -0.00000     0.00000
  15      -0.00000    -0.00000     0.00000    -0.00000    -0.00000     0.00000
  16       0.00000    -0.00000    -0.00000     0.00000     0.00000     0.00000
  17      -0.00000     0.00000    -0.00000    -0.00000    -0.00000    -0.00000
  18      -0.00000     0.00000    -0.00000    -0.00000    -0.00000    -0.00000
  19      -0.00000    -0.04606    -0.04971    -0.05617    -0.00000     0.00000
  20       0.00000     0.01089     0.06079    -0.06273     0.00000    -0.00000
  21      -0.00000     0.07422    -0.03977    -0.02566    -0.00000    -0.00000
  22       0.17490     0.00000    -0.00000    -0.00000    -0.10676    -0.00000
  23      -0.00000    -0.00000    -0.00000     0.00000     0.00000    -0.26797
  24      -0.00000    -0.07817    -0.08870    -0.01339    -0.00000    -0.00000
  25       0.00000     0.08894    -0.07895     0.00380     0.00000    -0.00000
  26      -0.00000    -0.01172    -0.00751     0.11817    -0.00000    -0.00000
  27       0.00000    -0.00000     0.00000    -0.00000     0.00000    -0.00000
  28      -0.00000     0.00000    -0.00000     0.00000    -0.00000     0.00000
  29       0.00000    -0.00000     0.00000    -0.00000     0.00000     0.00000
  30       0.00000    -0.00000     0.00000    -0.00000     0.00000     0.00000
  31       0.00000    -0.00000     0.00000    -0.00000     0.00000     0.00000
  32      -0.00000     0.00000    -0.00000     0.00000    -0.00000    -0.00000
  33      -0.00000    -0.01220     0.00990     0.00458    -0.00000    -0.00000
  34      -0.00000     0.00664     0.01220    -0.00866    -0.00000     0.00000
  35      -0.00000    -0.00865    -0.00459    -0.01311    -0.00000    -0.00000
  36      -0.07171     0.00000    -0.00000    -0.00000    -0.02004    -0.00000
  37      -0.00000     0.00000    -0.00000     0.00000    -0.00000    -0.00000
  38       0.00000    -0.00000     0.00000     0.00000     0.00000    -0.00000
  39       0.00000     0.00809    -0.00872     0.00708     0.00000    -0.00000
  40       0.00000     0.00102    -0.00811    -0.01116     0.00000    -0.00000
  41      -0.00000    -0.01118    -0.00705     0.00410    -0.00000    -0.00000
  42       0.00000    -0.00000     0.00000    -0.00000     0.00000    -0.00000
  43       0.00000    -0.00000     0.00000    -0.00000     0.00000     0.00000
  44       0.00000    -0.00000     0.00000    -0.00000     0.00000     0.00000
  45       0.01225     0.00000    -0.00000    -0.00000     0.13094     0.00000
  46      -0.00000     0.00447     0.00541    -0.00048    -0.00000    -0.00000
  47      -0.00000     0.00448    -0.00403    -0.00363    -0.00000    -0.00000
  48      -0.00000     0.00307    -0.00200     0.00601    -0.00000     0.00000
  49       0.00000    -0.00000     0.00000     0.00000     0.00000    -0.00000
  50      -0.00000     0.00000    -0.00000    -0.00000    -0.00000    -0.00000
  51       0.03042     0.00000    -0.00000    -0.00000    -0.26721    -0.00000
  52       0.00000     0.00166    -0.00014     0.00197     0.00000     0.00000
  53       0.00000     0.00135     0.00196    -0.00099     0.00000     0.00000
  54      -0.00000    -0.00144     0.00167     0.00133    -0.00000    -0.00000
  55       0.01125    -0.00000     0.00000     0.00000    -0.06061     0.00000

            7           8           9          10          11          12  
       ----------- ----------- ----------- ----------- ----------- -----------
   1       0.00000     0.00000     0.00000     0.08510     0.00000    -0.00000
   2      -0.00000    -0.00000    -0.00000     0.00000    -0.10487     0.05959
   3       0.00000    -0.00000     0.00000    -0.00000     0.02791    -0.11420
   4      -0.00000     0.00000    -0.00000    -0.00000    -0.11022    -0.08562
   5       0.00000     0.00000     0.00000     1.42041     0.00000    -0.00000
   6      -0.00000     0.00000     0.00000     0.00000    -0.00000     0.00000
   7       0.53056     0.00000     0.00000    -0.00000     0.00000    -0.00000
   8       0.00000     0.53056     0.00000    -0.00000     0.00000    -0.00000
   9       0.00000     0.00000     0.53056    -0.00000     0.00000    -0.00000
  10      -0.00000    -0.00000    -0.00000     1.71329    -0.00000     0.00000
  11       0.00000     0.00000     0.00000    -0.00000     0.60778    -0.00000
  12      -0.00000    -0.00000    -0.00000     0.00000    -0.00000     0.60778
  13       0.00000     0.00000     0.00000    -0.00000     0.00000    -0.00000
  14      -0.00000    -0.00000    -0.00000     0.00000    -0.00000     0.00000
  15       0.00000    -0.00000     0.00000     0.00000     0.00000     0.00000
  16       0.00000     0.00000    -0.00000    -0.00000     0.00000    -0.00000
  17      -0.00000    -0.00000    -0.00000     0.00000    -0.00000     0.00000
  18      -0.00000    -0.00000    -0.00000     0.00000    -0.00000     0.00000
  19       0.00000     0.00000     0.00000     0.00000    -0.15126    -0.12156
  20       0.00000    -0.00000     0.00000    -0.00000    -0.11726     0.01448
  21      -0.00000    -0.00000    -0.00000     0.00000     0.09523    -0.17525
  22      -0.00000    -0.00000    -0.00000    -0.10789    -0.00000     0.00000
  23      -0.00000     0.00000     0.00000    -0.00000    -0.00000     0.00000
  24      -0.00000    -0.00000    -0.00000     0.00000     0.09105     0.08373
  25       0.00000     0.00000     0.00000    -0.00000    -0.15117     0.17698
  26       0.00000    -0.00000     0.00000     0.00000    -0.15186    -0.12597
  27      -0.17416     0.13188    -0.13603    -0.00000     0.00000    -0.00000
  28       0.17127     0.03059    -0.18962     0.00000    -0.00000     0.00000
  29      -0.08100    -0.21886    -0.10847    -0.00000     0.00000    -0.00000
  30       0.00000     0.00000     0.00000    -0.00000     0.00000    -0.00000
  31       0.00000    -0.00000     0.00000    -0.00000     0.00000    -0.00000
  32      -0.00000    -0.00000    -0.00000     0.00000    -0.00000     0.00000
  33      -0.00000    -0.00000    -0.00000     0.00000    -0.04154     0.08895
  34      -0.00000     0.00000    -0.00000     0.00000    -0.02364     0.01012
  35      -0.00000    -0.00000    -0.00000     0.00000    -0.08793    -0.04474
  36      -0.00000    -0.00000    -0.00000    -0.07941    -0.00000     0.00000
  37      -0.00000    -0.00000    -0.00000     0.00000    -0.00000    -0.00000
  38       0.00000     0.00000     0.00000    -0.00000     0.00000    -0.00000
  39       0.00000     0.00000     0.00000    -0.00000    -0.02726     0.01270
  40       0.00000    -0.00000     0.00000    -0.00000     0.01306     0.02831
  41      -0.00000    -0.00000    -0.00000     0.00000     0.00763    -0.00309
  42       0.03901    -0.01898     0.00182    -0.00000     0.00000    -0.00000
  43       0.00135     0.00688     0.04285    -0.00000     0.00000    -0.00000
  44       0.01902     0.03844    -0.00677    -0.00000     0.00000    -0.00000
  45      -0.00000    -0.00000    -0.00000     0.27612    -0.00000     0.00000
  46      -0.00000    -0.00000    -0.00000     0.00000    -0.00214    -0.00250
  47      -0.00000    -0.00000    -0.00000     0.00000    -0.00147     0.00838
  48      -0.00000    -0.00000    -0.00000     0.00000    -0.00839    -0.00083
  49       0.00000     0.00000     0.00000    -0.00000     0.00000    -0.00000
  50       0.00000     0.00000     0.00000     0.00000     0.00000     0.00000
  51      -0.00000    -0.00000    -0.00000    -0.30903    -0.00000     0.00000
  52       0.00000     0.00000     0.00000    -0.00000    -0.00733    -0.00099
  53      -0.00000     0.00000    -0.00000    -0.00000     0.00041    -0.00108
  54      -0.00000    -0.00000    -0.00000     0.00000     0.00094    -0.00726
  55       0.00000     0.00000     0.00000    -0.00106     0.00000    -0.00000

           13          14          15          16          17          18  
       ----------- ----------- ----------- ----------- ----------- -----------
   1       0.00000    -0.00000    -0.00000     0.00000    -0.00000    -0.00000
   2      -0.09683     0.00000    -0.00000    -0.00000     0.00000     0.00000
   3      -0.10051    -0.00000     0.00000    -0.00000    -0.00000    -0.00000
   4       0.06667     0.00000    -0.00000     0.00000    -0.00000    -0.00000
   5       0.00000    -0.00000    -0.00000     0.00000    -0.00000    -0.00000
   6       0.00000     0.00000     0.00000     0.00000    -0.00000    -0.00000
   7       0.00000    -0.00000     0.00000     0.00000    -0.00000    -0.00000
   8       0.00000    -0.00000    -0.00000     0.00000    -0.00000    -0.00000
   9       0.00000    -0.00000     0.00000    -0.00000    -0.00000    -0.00000
  10      -0.00000     0.00000     0.00000    -0.00000     0.00000     0.00000
  11       0.00000    -0.00000     0.00000     0.00000    -0.00000    -0.00000
  12      -0.00000     0.00000     0.00000    -0.00000     0.00000     0.00000
  13       0.60778    -0.00000    -0.00000     0.00000    -0.00000    -0.00000
  14      -0.00000     0.72205    -0.00000    -0.00000     0.00000     0.00000
  15      -0.00000    -0.00000     0.72205    -0.00000     0.00000    -0.00000
  16       0.00000    -0.00000    -0.00000     0.72205    -0.00000    -0.00000
  17      -0.00000     0.00000     0.00000    -0.00000     0.53056     0.00000
  18      -0.00000     0.00000    -0.00000    -0.00000     0.00000     0.53056
  19      -0.08968    -0.00000     0.00000     0.00000    -0.00000     0.00000
  20       0.17816    -0.00000     0.00000    -0.00000    -0.00000    -0.00000
  21       0.07692     0.00000    -0.00000    -0.00000     0.00000     0.00000
  22      -0.00000     0.00000     0.00000    -0.00000     0.00000     0.00000
  23       0.00000     0.00000     0.00000    -0.00000     0.00000     0.00000
  24       0.19723     0.00000     0.00000    -0.00000     0.00000    -0.00000
  25      -0.00535    -0.00000     0.00000     0.00000    -0.00000    -0.00000
  26       0.12358    -0.00000     0.00000    -0.00000     0.00000     0.00000
  27      -0.00000    -0.00000     0.00000    -0.00000    -0.00000    -0.00000
  28      -0.00000     0.00000    -0.00000    -0.00000     0.00000     0.00000
  29       0.00000    -0.00000     0.00000     0.00000    -0.00000    -0.00000
  30       0.00000     0.15447    -0.14784    -0.16153    -0.00000    -0.00000
  31      -0.00000     0.09294    -0.13473     0.21218    -0.00000    -0.00000
  32      -0.00000    -0.19827    -0.17833    -0.02639     0.00000     0.00000
  33      -0.01946     0.00000    -0.00000    -0.00000     0.00000     0.00000
  34       0.09671     0.00000    -0.00000     0.00000     0.00000    -0.00000
  35      -0.01681     0.00000    -0.00000    -0.00000     0.00000    -0.00000
  36      -0.00000     0.00000     0.00000    -0.00000     0.00000     0.00000
  37      -0.00000     0.00000     0.00000    -0.00000    -0.24110     0.08998
  38       0.00000    -0.00000     0.00000     0.00000     0.08998     0.24110
  39       0.00822    -0.00000     0.00000     0.00000    -0.00000    -0.00000
  40      -0.00041    -0.00000    -0.00000    -0.00000    -0.00000    -0.00000
  41       0.03007     0.00000     0.00000    -0.00000     0.00000     0.00000
  42      -0.00000    -0.00000     0.00000    -0.00000    -0.00000    -0.00000
  43       0.00000    -0.00000     0.00000    -0.00000    -0.00000    -0.00000
  44       0.00000    -0.00000     0.00000     0.00000    -0.00000    -0.00000
  45      -0.00000     0.00000     0.00000    -0.00000     0.00000     0.00000
  46      -0.00814     0.00000     0.00000    -0.00000     0.00000    -0.00000
  47      -0.00219     0.00000     0.00000    -0.00000     0.00000     0.00000
  48       0.00246     0.00000    -0.00000    -0.00000     0.00000     0.00000
  49       0.00000    -0.00000    -0.00000     0.00000    -0.03842    -0.02024
  50      -0.00000    -0.00000    -0.00000    -0.00000    -0.02024     0.03842
  51      -0.00000     0.00000     0.00000    -0.00000     0.00000     0.00000
  52      -0.00027    -0.00000     0.00000     0.00000    -0.00000    -0.00000
  53      -0.00732     0.00000    -0.00000     0.00000     0.00000     0.00000
  54       0.00112     0.00000     0.00000    -0.00000     0.00000     0.00000
  55       0.00000    -0.00000    -0.00000     0.00000    -0.00000    -0.00000

           19          20          21          22          23          24  
       ----------- ----------- ----------- ----------- ----------- -----------
   1      -0.00000     0.00000    -0.00000     0.17490    -0.00000    -0.00000
   2      -0.04606     0.01089     0.07422     0.00000    -0.00000    -0.07817
   3      -0.04971     0.06079    -0.03977    -0.00000    -0.00000    -0.08870
   4      -0.05617    -0.06273    -0.02566    -0.00000     0.00000    -0.01339
   5      -0.00000     0.00000    -0.00000    -0.10676     0.00000    -0.00000
   6       0.00000    -0.00000    -0.00000    -0.00000    -0.26797    -0.00000
   7       0.00000     0.00000    -0.00000    -0.00000    -0.00000    -0.00000
   8       0.00000    -0.00000    -0.00000    -0.00000     0.00000    -0.00000
   9       0.00000     0.00000    -0.00000    -0.00000     0.00000    -0.00000
  10       0.00000    -0.00000     0.00000    -0.10789    -0.00000     0.00000
  11      -0.15126    -0.11726     0.09523    -0.00000    -0.00000     0.09105
  12      -0.12156     0.01448    -0.17525     0.00000     0.00000     0.08373
  13      -0.08968     0.17816     0.07692    -0.00000     0.00000     0.19723
  14      -0.00000    -0.00000     0.00000     0.00000     0.00000     0.00000
  15       0.00000     0.00000    -0.00000     0.00000     0.00000     0.00000
  16       0.00000    -0.00000    -0.00000    -0.00000    -0.00000    -0.00000
  17      -0.00000    -0.00000     0.00000     0.00000     0.00000     0.00000
  18       0.00000    -0.00000     0.00000     0.00000     0.00000    -0.00000
  19       0.45212     0.00000     0.00000     0.00000     0.00000     0.13146
  20       0.00000     0.45212    -0.00000    -0.00000    -0.00000    -0.08106
  21       0.00000    -0.00000     0.45212     0.00000    -0.00000    -0.02895
  22       0.00000    -0.00000     0.00000     0.27874    -0.00000     0.00000
  23       0.00000    -0.00000    -0.00000    -0.00000     0.47546    -0.00000
  24       0.13146    -0.08106    -0.02895     0.00000    -0.00000     0.66076
  25      -0.00579    -0.06105     0.14467    -0.00000    -0.00000    -0.00000
  26      -0.08588    -0.11997    -0.05406     0.00000    -0.00000    -0.00000
  27       0.00000     0.00000    -0.00000    -0.00000    -0.00000    -0.00000
  28      -0.00000    -0.00000     0.00000     0.00000     0.00000     0.00000
  29       0.00000     0.00000    -0.00000    -0.00000     0.00000    -0.00000
  30       0.00000     0.00000    -0.00000    -0.00000    -0.00000    -0.00000
  31       0.00000     0.00000    -0.00000    -0.00000    -0.00000     0.00000
  32      -0.00000    -0.00000     0.00000     0.00000     0.00000     0.00000
  33      -0.03223     0.03116    -0.24361     0.00000    -0.00000     0.00057
  34      -0.07325     0.23329     0.03953     0.00000     0.00000    -0.05865
  35       0.23441     0.07719    -0.02114     0.00000    -0.00000     0.04973
  36       0.00000    -0.00000     0.00000    -0.13759     0.00000     0.00000
  37      -0.00000    -0.00000     0.00000     0.00000    -0.00000     0.00000
  38      -0.00000     0.00000    -0.00000    -0.00000     0.00000     0.00000
  39      -0.00473    -0.01245     0.01076    -0.00000    -0.00000    -0.00411
  40       0.01382     0.00307     0.00963    -0.00000    -0.00000    -0.07029
  41       0.00893    -0.01135    -0.00920     0.00000    -0.00000    -0.12865
  42       0.00000     0.00000    -0.00000    -0.00000    -0.00000    -0.00000
  43       0.00000     0.00000    -0.00000    -0.00000     0.00000    -0.00000
  44       0.00000     0.00000    -0.00000    -0.00000     0.00000    -0.00000
  45       0.00000    -0.00000     0.00000    -0.03280    -0.00000     0.00000
  46      -0.03095     0.02818     0.00893     0.00000    -0.00000    -0.03256
  47       0.01366     0.00217     0.04050     0.00000    -0.00000     0.00220
  48      -0.02621    -0.03214     0.01057     0.00000     0.00000    -0.00564
  49      -0.00000     0.00000    -0.00000    -0.00000    -0.00000     0.00000
  50       0.00000     0.00000     0.00000     0.00000     0.00000    -0.00000
  51       0.00000    -0.00000     0.00000     0.11144    -0.00000     0.00000
  52      -0.01318    -0.00838     0.00572    -0.00000     0.00000    -0.02364
  53      -0.00761     0.01436     0.00351    -0.00000     0.00000    -0.04397
  54      -0.00671     0.00016    -0.01521     0.00000    -0.00000    -0.00883
  55      -0.00000     0.00000    -0.00000    -0.00495     0.00000    -0.00000

           25          26          27          28          29          30  
       ----------- ----------- ----------- ----------- ----------- -----------
   1       0.00000    -0.00000     0.00000    -0.00000     0.00000     0.00000
   2       0.08894    -0.01172    -0.00000     0.00000    -0.00000    -0.00000
   3      -0.07895    -0.00751     0.00000    -0.00000     0.00000     0.00000
   4       0.00380     0.11817    -0.00000     0.00000    -0.00000    -0.00000
   5       0.00000    -0.00000     0.00000    -0.00000     0.00000     0.00000
   6      -0.00000    -0.00000    -0.00000     0.00000     0.00000     0.00000
   7       0.00000     0.00000    -0.17416     0.17127    -0.08100     0.00000
   8       0.00000    -0.00000     0.13188     0.03059    -0.21886     0.00000
   9       0.00000     0.00000    -0.13603    -0.18962    -0.10847     0.00000
  10      -0.00000     0.00000    -0.00000     0.00000    -0.00000    -0.00000
  11      -0.15117    -0.15186     0.00000    -0.00000     0.00000     0.00000
  12       0.17698    -0.12597    -0.00000     0.00000    -0.00000    -0.00000
  13      -0.00535     0.12358    -0.00000    -0.00000     0.00000     0.00000
  14      -0.00000    -0.00000    -0.00000     0.00000    -0.00000     0.15447
  15       0.00000     0.00000     0.00000    -0.00000     0.00000    -0.14784
  16       0.00000    -0.00000    -0.00000    -0.00000     0.00000    -0.16153
  17      -0.00000     0.00000    -0.00000     0.00000    -0.00000    -0.00000
  18      -0.00000     0.00000    -0.00000     0.00000    -0.00000    -0.00000
  19      -0.00579    -0.08588     0.00000    -0.00000     0.00000     0.00000
  20      -0.06105    -0.11997     0.00000    -0.00000     0.00000     0.00000
  21       0.14467    -0.05406    -0.00000     0.00000    -0.00000    -0.00000
  22      -0.00000     0.00000    -0.00000     0.00000    -0.00000    -0.00000
  23      -0.00000    -0.00000    -0.00000     0.00000     0.00000    -0.00000
  24      -0.00000    -0.00000    -0.00000     0.00000    -0.00000    -0.00000
  25       0.66076    -0.00000     0.00000    -0.00000     0.00000     0.00000
  26      -0.00000     0.66076     0.00000    -0.00000     0.00000     0.00000
  27       0.00000     0.00000     0.41249    -0.00000     0.00000     0.00000
  28      -0.00000    -0.00000    -0.00000     0.41249    -0.00000    -0.00000
  29       0.00000     0.00000     0.00000    -0.00000     0.41249     0.00000
  30       0.00000     0.00000     0.00000    -0.00000     0.00000     0.47546
  31       0.00000     0.00000     0.00000    -0.00000     0.00000     0.00000
  32      -0.00000    -0.00000    -0.00000     0.00000    -0.00000    -0.00000
  33      -0.07302     0.02410    -0.00000     0.00000    -0.00000    -0.00000
  34      -0.01600    -0.04709    -0.00000     0.00000     0.00000    -0.00000
  35      -0.01803    -0.05581    -0.00000     0.00000    -0.00000    -0.00000
  36      -0.00000     0.00000    -0.00000     0.00000    -0.00000    -0.00000
  37      -0.00000    -0.00000    -0.00000     0.00000    -0.00000    -0.00000
  38       0.00000    -0.00000     0.00000    -0.00000     0.00000     0.00000
  39      -0.12778    -0.07186     0.00000    -0.00000     0.00000     0.00000
  40      -0.06137     0.11314     0.00000    -0.00000     0.00000     0.00000
  41       0.03761    -0.05952    -0.00000     0.00000    -0.00000    -0.00000
  42       0.00000     0.00000    -0.13726     0.08275     0.01147     0.00000
  43       0.00000     0.00000    -0.07415    -0.11050    -0.09006     0.00000
  44       0.00000     0.00000     0.03850     0.08222    -0.13258     0.00000
  45      -0.00000     0.00000    -0.00000     0.00000    -0.00000    -0.00000
  46      -0.00123    -0.00593     0.00000     0.00000    -0.00000    -0.00000
  47       0.02781    -0.01784    -0.00000     0.00000    -0.00000    -0.00000
  48       0.01794     0.02726    -0.00000     0.00000    -0.00000    -0.00000
  49       0.00000    -0.00000     0.00000    -0.00000     0.00000     0.00000
  50      -0.00000     0.00000     0.00000    -0.00000     0.00000    -0.00000
  51      -0.00000     0.00000    -0.00000     0.00000    -0.00000    -0.00000
  52       0.02747     0.03546     0.00000    -0.00000     0.00000     0.00000
  53      -0.00630    -0.02444    -0.00000     0.00000     0.00000     0.00000
  54      -0.04215     0.02676    -0.00000     0.00000    -0.00000    -0.00000
  55       0.00000    -0.00000     0.00000    -0.00000     0.00000     0.00000

           31          32          33          34          35          36  
       ----------- ----------- ----------- ----------- ----------- -----------
   1       0.00000    -0.00000    -0.00000    -0.00000    -0.00000    -0.07171
   2      -0.00000     0.00000    -0.01220     0.00664    -0.00865     0.00000
   3       0.00000    -0.00000     0.00990     0.01220    -0.00459    -0.00000
   4      -0.00000     0.00000     0.00458    -0.00866    -0.01311    -0.00000
   5       0.00000    -0.00000    -0.00000    -0.00000    -0.00000    -0.02004
   6       0.00000    -0.00000    -0.00000     0.00000    -0.00000    -0.00000
   7       0.00000    -0.00000    -0.00000    -0.00000    -0.00000    -0.00000
   8      -0.00000    -0.00000    -0.00000     0.00000    -0.00000    -0.00000
   9       0.00000    -0.00000    -0.00000    -0.00000    -0.00000    -0.00000
  10      -0.00000     0.00000     0.00000     0.00000     0.00000    -0.07941
  11       0.00000    -0.00000    -0.04154    -0.02364    -0.08793    -0.00000
  12      -0.00000     0.00000     0.08895     0.01012    -0.04474     0.00000
  13      -0.00000    -0.00000    -0.01946     0.09671    -0.01681    -0.00000
  14       0.09294    -0.19827     0.00000     0.00000     0.00000     0.00000
  15      -0.13473    -0.17833    -0.00000    -0.00000    -0.00000     0.00000
  16       0.21218    -0.02639    -0.00000     0.00000    -0.00000    -0.00000
  17      -0.00000     0.00000     0.00000     0.00000     0.00000     0.00000
  18      -0.00000     0.00000     0.00000    -0.00000    -0.00000     0.00000
  19       0.00000    -0.00000    -0.03223    -0.07325     0.23441     0.00000
  20       0.00000    -0.00000     0.03116     0.23329     0.07719    -0.00000
  21      -0.00000     0.00000    -0.24361     0.03953    -0.02114     0.00000
  22      -0.00000     0.00000     0.00000     0.00000     0.00000    -0.13759
  23      -0.00000     0.00000    -0.00000     0.00000    -0.00000     0.00000
  24       0.00000     0.00000     0.00057    -0.05865     0.04973     0.00000
  25       0.00000    -0.00000    -0.07302    -0.01600    -0.01803    -0.00000
  26       0.00000    -0.00000     0.02410    -0.04709    -0.05581     0.00000
  27       0.00000    -0.00000    -0.00000    -0.00000    -0.00000    -0.00000
  28      -0.00000     0.00000     0.00000     0.00000     0.00000     0.00000
  29       0.00000    -0.00000    -0.00000     0.00000    -0.00000    -0.00000
  30       0.00000    -0.00000    -0.00000    -0.00000    -0.00000    -0.00000
  31       0.47546    -0.00000    -0.00000    -0.00000    -0.00000    -0.00000
  32      -0.00000     0.47546     0.00000     0.00000     0.00000     0.00000
  33      -0.00000     0.00000     0.44679     0.00000     0.00000     0.00000
  34      -0.00000     0.00000     0.00000     0.44679     0.00000     0.00000
  35      -0.00000     0.00000     0.00000     0.00000     0.44679     0.00000
  36      -0.00000     0.00000     0.00000     0.00000     0.00000     0.15619
  37      -0.00000     0.00000     0.00000     0.00000     0.00000     0.00000
  38       0.00000    -0.00000    -0.00000    -0.00000     0.00000    -0.00000
  39       0.00000    -0.00000     0.06153     0.04592     0.04950    -0.00000
  40       0.00000    -0.00000     0.05806    -0.00181    -0.07050    -0.00000
  41       0.00000     0.00000    -0.03446     0.07894    -0.03040     0.00000
  42       0.00000    -0.00000    -0.00000    -0.00000    -0.00000    -0.00000
  43       0.00000    -0.00000    -0.00000     0.00000    -0.00000    -0.00000
  44      -0.00000    -0.00000    -0.00000     0.00000    -0.00000    -0.00000
  45      -0.00000     0.00000     0.00000     0.00000     0.00000    -0.02650
  46       0.00000     0.00000    -0.00225     0.06899    -0.03954     0.00000
  47      -0.00000     0.00000    -0.07683     0.00831     0.01887     0.00000
  48      -0.00000     0.00000    -0.02049    -0.03873    -0.06640     0.00000
  49       0.00000    -0.00000    -0.00000    -0.00000     0.00000    -0.00000
  50      -0.00000    -0.00000     0.00000    -0.00000    -0.00000     0.00000
  51      -0.00000     0.00000     0.00000     0.00000     0.00000    -0.14905
  52       0.00000    -0.00000    -0.01544    -0.00958    -0.04838    -0.00000
  53      -0.00000     0.00000    -0.00204     0.05077    -0.00940    -0.00000
  54      -0.00000     0.00000     0.04928    -0.00090    -0.01554     0.00000
  55       0.00000    -0.00000    -0.00000    -0.00000    -0.00000    -0.00955

           37          38          39          40          41          42  
       ----------- ----------- ----------- ----------- ----------- -----------
   1      -0.00000     0.00000     0.00000     0.00000    -0.00000     0.00000
   2       0.00000    -0.00000     0.00809     0.00102    -0.01118    -0.00000
   3      -0.00000     0.00000    -0.00872    -0.00811    -0.00705     0.00000
   4       0.00000     0.00000     0.00708    -0.01116     0.00410    -0.00000
   5      -0.00000     0.00000     0.00000     0.00000    -0.00000     0.00000
   6      -0.00000    -0.00000    -0.00000    -0.00000    -0.00000    -0.00000
[...]
  36      -2.57054    -0.02460     0.00016     0.00565    -0.88272    -0.00440
  37      -1.01435    -0.14129    -0.00566    -1.77450     2.18424     0.02780
  38       0.01704    -0.00773    -0.11806    -0.01943    -0.04171     3.36230
  39      -2.57054     1.01656    -0.00029     2.06995     2.34472     0.03893
  40      -0.00000    -0.00000    -0.00162     0.00000     0.00003    -0.00135
  41      -2.57054    -0.94276    -0.00020    -2.08689     0.30343    -0.02575
  42      -1.01435    -0.97297     0.01884     0.80591    -0.39920    -0.00413
  43       0.01704     0.05004     3.28500    -0.01611     0.00576    -0.72636
  44      -1.01435     3.06021    -0.05086    -0.64323    -0.98665    -0.01541
  45       0.01704    -0.01410    -1.05565     0.01184     0.01198    -0.87865
  46      -3.26369     0.01376    -0.00009    -0.00316     0.49373     0.00246
  47      -1.28787     0.07903     0.00316     0.99253    -1.22171    -0.01555
  48       0.02164     0.00432     0.06603     0.01087     0.02333    -1.88063
  49      -3.26369    -0.56859     0.00016    -1.15779    -1.31147    -0.02178
  50       0.00000     0.00000     0.00091    -0.00000    -0.00002     0.00076
  51      -3.26369     0.52731     0.00011     1.16726    -0.16972     0.01440
  52      -1.28787     0.54421    -0.01054    -0.45077     0.22328     0.00231
  53       0.02164    -0.02799    -1.83740     0.00901    -0.00322     0.40627
  54      -1.28787    -1.71166     0.02845     0.35978     0.55186     0.00862
  55       0.02164     0.00789     0.59046    -0.00663    -0.00670     0.49145

           49          50          51          52          53          54  
       ----------- ----------- ----------- ----------- ----------- -----------
   1       0.00000    -0.00000    -2.07939    -0.00000     0.00000     0.00024
   2       0.00000    -0.00000    -4.06559    -0.00000     0.00000     0.00045
   3      -0.00000    -0.00000   -39.13503    -0.00007     0.00000     0.00753
   4       0.00000    -0.00000    61.69877     0.00012    -0.00000    -0.01350
   5       0.00000     0.00000    -0.23853    -0.00000     0.00000     0.00003
   6      -0.00000    -0.00000    -0.00084     2.95929    -0.03162    -7.54993
   7      -0.00000    -0.00000    -0.00032    -7.54998    -0.03250    -2.95917
   8      -0.00000     0.00000     0.00000     0.01872    -8.10912     0.04130
   9       0.00000     0.00000     0.00456   -16.21095     0.17321    41.35839
  10       0.00000     0.00000     0.00174    41.35863     0.17805    16.21029
  11       0.00000    -0.00000    -0.00002    -0.10256    44.42161    -0.22624
  12      -0.00000    -0.00000    -0.00042     1.50744    -0.01611    -3.84588
  13      -0.00000    -0.00000    -0.00016    -3.84590    -0.01656    -1.50738
  14      -0.00000     0.00000     0.00000     0.00954    -4.13073     0.02104
  15       0.00000     0.00000     0.00012    -0.41695     0.00445     1.06376
  16       0.00000     0.00000     0.00004     1.06377     0.00458     0.41694
  17       0.00000    -0.00000    -0.00000    -0.00264     1.14255    -0.00582
  18       0.00000     0.00000     3.71534     0.00000    -0.00000    -0.00046
  19       0.00000     0.00000    -0.00000    -0.00000    -0.00000    -0.00000
  20      -0.00000    -0.00000     0.00000     0.00000    -0.00000     0.00000
  21      -0.00000    -0.00000     3.71534     0.00000    -0.00000    -0.00046
  22       0.00000    -0.00000     0.00000     0.00000    -0.00000     0.00000
  23      -0.00000     0.00000     3.71534     0.00000    -0.00000    -0.00046
  24      -0.00000    -0.00000    -4.00103    -0.00001     0.00000     0.00096
  25      -0.00000    -0.00000    -0.00000     0.00000     0.00000     0.00000
  26       0.00000     0.00000     0.00000    -0.00000     0.00000    -0.00000
  27       0.00000     0.00000    -4.00103    -0.00001     0.00000     0.00096
  28      -0.00000     0.00000     0.00000    -0.00000     0.00000    -0.00000
  29       0.00000    -0.00000    -4.00103    -0.00001     0.00000     0.00096
  30       0.00000     0.00000   -13.87578    -0.00003     0.00000     0.00307
  31       0.00000     0.00000    -0.00000    -0.00000    -0.00000    -0.00000
  32      -0.00000    -0.00000     0.00000     0.00000    -0.00000     0.00000
  33      -0.00000    -0.00000   -13.87578    -0.00003     0.00000     0.00307
  34       0.00000    -0.00000     0.00000     0.00000    -0.00000     0.00000
  35      -0.00000     0.00000   -13.87578    -0.00003     0.00000     0.00307
  36      -1.05218     0.00000    -0.00054     1.97078    -0.02106    -5.02799
  37      -1.83878    -0.00001    -0.00021    -5.02802    -0.02165    -1.97070
  38       0.02100     0.00082     0.00000     0.01247    -5.40039     0.02750
  39       0.71013    -0.00000    -0.00054     1.97078    -0.02106    -5.02799
  40      -0.00001     5.32016     0.00000    -0.00000     0.00000    -0.00000
  41       2.44642    -0.00000    -0.00054     1.97078    -0.02106    -5.02799
  42       0.36199     0.00001    -0.00021    -5.02802    -0.02165    -1.97070
  43      -0.00255     0.00082     0.00000     0.01247    -5.40039     0.02750
  44       0.75280    -0.00001    -0.00021    -5.02802    -0.02165    -1.97070
  45      -0.00615    -0.00054     0.00000     0.01247    -5.40039     0.02750
  46       0.58852    -0.00000    -0.00208     7.36228    -0.07866   -18.78310
  47       1.02848     0.00001    -0.00080   -18.78321    -0.08086    -7.36198
  48      -0.01175    -0.00046     0.00001     0.04658   -20.17428     0.10275
  49      -0.39719     0.00000    -0.00208     7.36228    -0.07866   -18.78310
  50       0.00000    -2.97572    -0.00000     0.00000    -0.00000     0.00000
  51      -1.36836     0.00000    -0.00208     7.36228    -0.07866   -18.78310
  52      -0.20247    -0.00000    -0.00080   -18.78321    -0.08086    -7.36198
  53       0.00142    -0.00046     0.00001     0.04658   -20.17428     0.10275
  54      -0.42106     0.00001    -0.00080   -18.78321    -0.08086    -7.36198
  55       0.00344     0.00030     0.00001     0.04658   -20.17428     0.10275

           55  
       -----------
   1      13.26629
   2      17.00052
   3      23.11518
   4     -16.10902
   5      -0.01199
   6      -0.00001
   7      -0.00000
   8       0.00000
   9       0.00004
  10       0.00001
  11      -0.00000
  12      -0.00000
  13      -0.00000
  14       0.00000
  15       0.00000
  16       0.00000
  17      -0.00000
  18      -4.23063
  19      -0.00000
  20       0.00000
  21      -4.23063
  22       0.00000
  23      -4.23063
  24      -1.01865
  25       0.00000
  26      -0.00000
  27      -1.01865
  28      -0.00000
  29      -1.01865
  30       3.78706
  31      -0.00000
  32       0.00000
  33       3.78706
  34       0.00000
  35       3.78706
  36      -0.00000
  37      -0.00000
  38       0.00000
  39      -0.00000
  40       0.00000
  41      -0.00000
  42      -0.00000
  43       0.00000
  44      -0.00000
  45       0.00000
  46      -0.00002
  47      -0.00001
  48       0.00000
  49      -0.00002
  50      -0.00000
  51      -0.00002
  52      -0.00001
  53       0.00000
  54      -0.00001
  55       0.00000
  int_init: cando_txs set to always be  F
                                NWChem TDDFT Module
                                -------------------


            General Information
            -------------------
           No. of orbitals :     110
            Alpha orbitals :      55
             Beta orbitals :      55
        Alpha frozen cores :       0
         Beta frozen cores :       0
     Alpha frozen virtuals :       0
      Beta frozen virtuals :       0
         Spin multiplicity :       2
    Number of AO functions :      55
        Use of symmetry is : off
      Symmetry adaption is : off
         Schwarz screening :  0.10D-07

              XC Information
              --------------
              Hartree-Fock (Exact) Exchange   1.00          
              LC-wPBE(h)Exchange Functional   1.00          
     Perdew 1991 LDA Correlation Functional   1.00 local    
    PerdewBurkeErnz. Correlation Functional   1.00 non-local
           Alpha           :  0.00
           Beta            :  1.00
           Gamma           :  0.40

             TDDFT Information
             -----------------
          Calculation type : TDDFT             
         Wavefunction type : Unrestricted
          No. of electrons :       3
           Alpha electrons :       2
            Beta electrons :       1
              No. of roots :       5
          Max subspacesize :    5000
            Max iterations :     100
               Target root :       1
           Target symmetry : none
      Symmetry restriction : off
                 Algorithm : Optimal
        Davidson threshold :  0.10D-03

            Memory Information
            ------------------
          Available GA space size is       52428793950 doubles
          Available MA space size is        4194412732 doubles
          Length of a trial vector is          106      54
          Algorithm : Incore multiple tensor contraction
          Estimated peak GA usage is           3709800 doubles
          Estimated peak MA usage is             18000 doubles

    5 smallest eigenvalue differences (eV) 
--------------------------------------------------------
  No. Spin  Occ  Vir  Irrep   E(Occ)    E(Vir)   E(Diff)
--------------------------------------------------------
    1    1    2    3 a        -0.206     0.011     5.902
    2    1    2    4 a        -0.206     0.011     5.902
    3    1    2    5 a        -0.206     0.011     5.902
    4    1    2    6 a        -0.206     0.018     6.089
    5    1    2    7 a        -0.206     0.036     6.595
--------------------------------------------------------

  Entering Davidson iterations
  Unrestricted

  Iter   NTrls   NConv    DeltaV     DeltaE      Time   
  ----  ------  ------  ---------  ---------  --------- 
    1      5       0     0.52E-01   0.10+100        2.3
    2     15       0     0.22E-01   0.33E-01        3.9
    3     25       1     0.58E-02   0.28E-02        3.9
    4     32       2     0.41E-03   0.19E-04        2.9
    5     38       5     0.71E-04   0.64E-07        2.5
  ----  ------  ------  ---------  ---------  --------- 
  Convergence criterion met

  Ground state a          -7.469362942627 a.u.
  <S2> =   0.7500

  ----------------------------------------------------------------------------
  Root   1         a              0.068598518 a.u.                1.8667 eV 
  <S2> =   0.7500
  ----------------------------------------------------------------------------
     Transition Moments    X -2.25377   Y  0.58070   Z  0.00485
     Transition Moments   XX -0.00000  XY  0.00000  XZ -0.00000
     Transition Moments   YY -0.00000  YZ  0.00000  ZZ -0.00000
     Dipole Oscillator Strength                    0.2477191769
     Electric Quadrupole                           0.0000000000
     Magnetic Dipole                               0.0000000000
     Total Oscillator Strength                     0.2477191769

     Occ.    2 alpha a   ---  Virt.    4 alpha a    0.74654 X
     Occ.    2 alpha a   ---  Virt.    8 alpha a    0.61095 X
     Occ.    2 alpha a   ---  Virt.   16 alpha a   -0.05820 X
     Occ.    2 alpha a   ---  Virt.   17 alpha a    0.25005 X
  ----------------------------------------------------------------------------
  Root   2         a              0.068598518 a.u.                1.8667 eV 
  <S2> =   0.7500
  ----------------------------------------------------------------------------
     Transition Moments    X  0.00763   Y  0.01021   Z  2.32735
     Transition Moments   XX -0.00000  XY -0.00000  XZ -0.00000
     Transition Moments   YY -0.00000  YZ -0.00000  ZZ  0.00000
     Dipole Oscillator Strength                    0.2477191770
     Electric Quadrupole                           0.0000000000
     Magnetic Dipole                               0.0000000000
     Total Oscillator Strength                     0.2477191770

     Occ.    2 alpha a   ---  Virt.    5 alpha a   -0.74709 X
     Occ.    2 alpha a   ---  Virt.    9 alpha a   -0.61109 X
     Occ.    2 alpha a   ---  Virt.   18 alpha a   -0.25673 X
  ----------------------------------------------------------------------------
  Root   3         a              0.068598519 a.u.                1.8667 eV 
  <S2> =   0.7500
  ----------------------------------------------------------------------------
     Transition Moments    X -0.58067   Y -2.25375   Z  0.01179
     Transition Moments   XX -0.00000  XY  0.00000  XZ -0.00000
     Transition Moments   YY -0.00000  YZ -0.00000  ZZ -0.00000
     Dipole Oscillator Strength                    0.2477191633
     Electric Quadrupole                           0.0000000000
     Magnetic Dipole                               0.0000000000
     Total Oscillator Strength                     0.2477191633

     Occ.    2 alpha a   ---  Virt.    3 alpha a    0.74654 X
     Occ.    2 alpha a   ---  Virt.    7 alpha a    0.61095 X
     Occ.    2 alpha a   ---  Virt.   16 alpha a    0.25005 X
     Occ.    2 alpha a   ---  Virt.   17 alpha a    0.05820 X
  ----------------------------------------------------------------------------
  Root   4         a              0.130535013 a.u.                3.5520 eV 
  <S2> =   0.7500
  ----------------------------------------------------------------------------
     Transition Moments    X -0.00000   Y -0.00000   Z  0.00000
     Transition Moments   XX  4.33273  XY  0.00000  XZ  0.00000
     Transition Moments   YY  4.33273  YZ -0.00000  ZZ  4.33273
     Dipole Oscillator Strength                    0.0000000000
     Electric Quadrupole                           0.0000000000
     Magnetic Dipole                               0.0000000000
     Total Oscillator Strength                     0.0000000000

     Occ.    2 alpha a   ---  Virt.    6 alpha a   -0.92088 X
     Occ.    2 alpha a   ---  Virt.   15 alpha a    0.38413 X
     Occ.    2 alpha a   ---  Virt.   24 alpha a   -0.06655 X
  ----------------------------------------------------------------------------
  Root   5         a              0.148015633 a.u.                4.0277 eV 
  <S2> =   0.7500
  ----------------------------------------------------------------------------
     Transition Moments    X -0.04298   Y -0.15295   Z  0.00071
     Transition Moments   XX -0.00001  XY  0.00000  XZ -0.00000
     Transition Moments   YY -0.00001  YZ -0.00000  ZZ -0.00001
     Dipole Oscillator Strength                    0.0024907521
     Electric Quadrupole                           0.0000000000
     Magnetic Dipole                               0.0000000000
     Total Oscillator Strength                     0.0024907521

     Occ.    2 alpha a   ---  Virt.    3 alpha a    0.65654 X
     Occ.    2 alpha a   ---  Virt.    7 alpha a   -0.62248 X
     Occ.    2 alpha a   ---  Virt.   16 alpha a   -0.40448 X
     Occ.    2 alpha a   ---  Virt.   17 alpha a   -0.10347 X
     Occ.    2 alpha a   ---  Virt.   32 alpha a    0.06289 X

              Target root =      1
          Target symmetry = none
      Ground state energy =     -7.469362942627
        Excitation energy =      0.068598518467
     Excited state energy =     -7.400764424160

  stored tddft:energy   -7.4007644241599948     

 Task  times  cpu:       15.2s     wall:       17.8s


                                NWChem Input Module
                                -------------------


 Summary of allocated global arrays
-----------------------------------
  No active global arrays


MA_summarize_allocated_blocks: starting scan ...
heap block 'gridpts', handle 3, address 0x12bf76c0:
	type of elements:		double precision
	number of elements:		1048465653
	address of client space:	0x12bf7740
	index for client space:		11160127
	total number of bytes:		8387725360
MA_summarize_allocated_blocks: scan completed: 1 heap block, 0 stack blocks
MA usage statistics:

	allocation statistics:
					      heap	     stack
					      ----	     -----
	current number of blocks	         1	         0
	maximum number of blocks	        18	        54
	current total bytes		8387725360	         0
	maximum total bytes		8388520208	  22513208
	maximum total K-bytes		   8388521	     22514
	maximum total M-bytes		      8389	        23


                                     CITATION
                                     --------
                Please cite the following reference when publishing
                           results obtained with NWChem:

          E. Apra, E. J. Bylaska, W. A. de Jong, N. Govind, K. Kowalski,
       T. P. Straatsma, M. Valiev, H. J. J. van Dam, Y. Alexeev, J. Anchell,
       V. Anisimov, F. W. Aquino, R. Atta-Fynn, J. Autschbach, N. P. Bauman,
     J. C. Becca, D. E. Bernholdt, K. Bhaskaran-Nair, S. Bogatko, P. Borowski,
         J. Boschen, J. Brabec, A. Bruner, E. Cauet, Y. Chen, G. N. Chuev,
      C. J. Cramer, J. Daily, M. J. O. Deegan, T. H. Dunning Jr., M. Dupuis,
   K. G. Dyall, G. I. Fann, S. A. Fischer, A. Fonari, H. Fruchtl, L. Gagliardi,
      J. Garza, N. Gawande, S. Ghosh, K. Glaesemann, A. W. Gotz, J. Hammond,
       V. Helms, E. D. Hermes, K. Hirao, S. Hirata, M. Jacquelin, L. Jensen,
   B. G. Johnson, H. Jonsson, R. A. Kendall, M. Klemm, R. Kobayashi, V. Konkov,
      S. Krishnamoorthy, M. Krishnan, Z. Lin, R. D. Lins, R. J. Littlefield,
      A. J. Logsdail, K. Lopata, W. Ma, A. V. Marenich, J. Martin del Campo,
   D. Mejia-Rodriguez, J. E. Moore, J. M. Mullin, T. Nakajima, D. R. Nascimento,
    J. A. Nichols, P. J. Nichols, J. Nieplocha, A. Otero-de-la-Roza, B. Palmer,
    A. Panyala, T. Pirojsirikul, B. Peng, R. Peverati, J. Pittner, L. Pollack,
   R. M. Richard, P. Sadayappan, G. C. Schatz, W. A. Shelton, D. W. Silverstein,
   D. M. A. Smith, T. A. Soares, D. Song, M. Swart, H. L. Taylor, G. S. Thomas,
            V. Tipparaju, D. G. Truhlar, K. Tsemekhman, T. Van Voorhis,
      A. Vazquez-Mayagoitia, P. Verma, O. Villa, A. Vishnu, K. D. Vogiatzis,
        D. Wang, J. H. Weare, M. J. Williamson, T. L. Windus, K. Wolinski,
        A. T. Wong, Q. Wu, C. Yang, Q. Yu, M. Zacharias, Z. Zhang, Y. Zhao,
                                and R. J. Harrison
                        "NWChem: Past, present, and future
                         J. Chem. Phys. 152, 184102 (2020)
                               doi:10.1063/5.0004997

                                      AUTHORS
                                      -------
  E. Apra, E. J. Bylaska, N. Govind, K. Kowalski, M. Valiev, D. Mejia-Rodriguez,
       A. Kunitsa, N. P. Bauman, A. Panyala, W. A. de Jong, T. P. Straatsma,
   H. J. J. van Dam, D. Wang, T. L. Windus, J. Hammond, J. Autschbach, A. Woods,
    K. Bhaskaran-Nair, J. Brabec, K. Lopata, S. A. Fischer, S. Krishnamoorthy,
     M. Jacquelin, W. Ma, M. Klemm, O. Villa, Y. Chen, V. Anisimov, F. Aquino,
     S. Hirata, M. T. Hackler, E. Hermes, L. Jensen, J. E. Moore, J. C. Becca,
      V. Konjkov, T. Risthaus, M. Malagoli, A. Marenich, A. Otero-de-la-Roza,
        J. Mullin, P. Nichols, R. Peverati, J. Pittner, Y. Zhao, P.-D. Fan,
        A. Fonari, M. J. Williamson, R. J. Harrison, J. R. Rehr, M. Dupuis,
     D. Silverstein, D. M. A. Smith, J. Nieplocha, V. Tipparaju, M. Krishnan,
     B. E. Van Kuiken, A. Vazquez-Mayagoitia, M. Swart, Q. Wu, T. Van Voorhis,
     A. A. Auer, M. Nooijen, L. D. Crosby, E. Brown, G. Cisneros, G. I. Fann,
   H. Fruchtl, J. Garza, K. Hirao, R. A. Kendall, J. A. Nichols, K. Tsemekhman,
    K. Wolinski, J. Anchell, D. E. Bernholdt, P. Borowski, T. Clark, D. Clerc,
   H. Dachsel, M. J. O. Deegan, K. Dyall, D. Elwood, E. Glendening, M. Gutowski,
   A. C. Hess, J. Jaffe, B. G. Johnson, J. Ju, R. Kobayashi, R. Kutteh, Z. Lin,
   R. Littlefield, X. Long, B. Meng, T. Nakajima, S. Niu, L. Pollack, M. Rosing,
   K. Glaesemann, G. Sandrone, M. Stave, H. Taylor, G. Thomas, J. H. van Lenthe,
                               A. T. Wong, Z. Zhang.

 Total times  cpu:       15.3s     wall:       18.9s
