 argument  1 = /home/aditisingh4812/nw_chem/nwchem-run/nwchem-run/tddft/open/open_atom/geom-MOL/n.nw
                                         
                                         


             Northwest Computational Chemistry Package (NWChem) 7.2.3
             --------------------------------------------------------


                    Environmental Molecular Sciences Laboratory
                       Pacific Northwest National Laboratory
                                Richland, WA 99352

                              Copyright (c) 1994-2022
                       Pacific Northwest National Laboratory
                            Battelle Memorial Institute

             NWChem is an open-source computational chemistry package
                        distributed under the terms of the
                      Educational Community License (ECL) 2.0
             A copy of the license is included with this distribution
                              in the LICENSE.TXT file

                                  ACKNOWLEDGMENT
                                  --------------

            This software and its documentation were developed at the
            EMSL at Pacific Northwest National Laboratory, a multiprogram
            national laboratory, operated for the U.S. Department of Energy
            by Battelle under Contract Number DE-AC05-76RL01830. Support
            for this work was provided by the Department of Energy Office
            of Biological and Environmental Research, Office of Basic
            Energy Sciences, and the Office of Advanced Scientific Computing.


           Job information
           ---------------

    hostname        = p17
    program         = /home/aditisingh4812/nw_chem/nwchem-7.2.3-release.revision-d690e065-srconly.2024-08-27/nwchem-7.2.3/bin/LINUX64/nwchem
    date            = Thu May  8 11:53:29 2025

    compiled        = Mon_Apr_07_18:51:54_2025
    source          = /home/aditisingh4812/nw_chem/nwchem-7.2.3-release.revision-d690e065-srconly.2024-08-27/nwchem-7.2.3
    nwchem branch   = 7.2.3
    nwchem revision = d690e065
    ga revision     = 5.8.0
    use scalapack   = F
    input           = /home/aditisingh4812/nw_chem/nwchem-run/nwchem-run/tddft/open/open_atom/geom-MOL/n.nw
    prefix          = n.
    data base       = ./n.db
    status          = startup
    nproc           =        8
    time left       =     -1s



           Memory information
           ------------------

    heap     = 2621439998 doubles =  20000.0 Mbytes
    stack    = 2621439995 doubles =  20000.0 Mbytes
    global   = 6553600000 doubles =  50000.0 Mbytes (distinct from heap & stack)
    total    = ********** doubles =  90000.0 Mbytes
    verify   = yes
    hardfail = no 


           Directory information
           ---------------------

  0 permanent = .
  0 scratch   = .




                                NWChem Input Module
                                -------------------



 Scaling coordinates for geometry "geometry" by  1.889725989
 (inverse scale =  0.529177249)



                             Geometry "geometry" -> ""
                             -------------------------

 Output coordinates in angstroms (scale by  1.889725989 to convert to a.u.)

  No.       Tag          Charge          X              Y              Z
 ---- ---------------- ---------- -------------- -------------- --------------
    1 N                    7.0000     0.00000000     0.00000000     0.00000000

      Atomic Mass 
      ----------- 

      N                 14.003070


 Effective nuclear repulsion energy (a.u.)       0.0000000000

            Nuclear Dipole moment (a.u.) 
            ----------------------------
        X                 Y               Z
 ---------------- ---------------- ----------------
     0.0000000000     0.0000000000     0.0000000000


            XYZ format geometry
            -------------------
     1
 geometry
 N                     0.00000000     0.00000000     0.00000000



 Summary of "ao basis" -> "" (cartesian)
 ------------------------------------------------------------------------------
       Tag                 Description            Shells   Functions and Types
 ---------------- ------------------------------  ------  ---------------------
 *                        aug-cc-pVTZ                 on all atoms 


  pbe96 is a nonlocal functional; adding pw91lda local functional. 

                                 NWChem DFT Module
                                 -----------------


                      Basis "ao basis" -> "ao basis" (cartesian)
                      -----
  N (Nitrogen)
  ------------
            Exponent  Coefficients 
       -------------- ---------------------------------------------------------
  1 S  1.14200000E+04  0.000523
  1 S  1.71200000E+03  0.004045
  1 S  3.89300000E+02  0.020775
  1 S  1.10000000E+02  0.080727
  1 S  3.55700000E+01  0.233074
  1 S  1.25400000E+01  0.433501
  1 S  4.64400000E+00  0.347472
  1 S  5.11800000E-01 -0.008508

  2 S  1.14200000E+04 -0.000115
  2 S  1.71200000E+03 -0.000895
  2 S  3.89300000E+02 -0.004624
  2 S  1.10000000E+02 -0.018528
  2 S  3.55700000E+01 -0.057339
  2 S  1.25400000E+01 -0.132076
  2 S  4.64400000E+00 -0.172510
  2 S  5.11800000E-01  0.599944

  3 S  1.29300000E+00  1.000000

  4 S  1.78700000E-01  1.000000

  5 S  5.76000000E-02  1.000000

  6 P  2.66300000E+01  0.014670
  6 P  5.94800000E+00  0.091764
  6 P  1.74200000E+00  0.298683

  7 P  5.55000000E-01  1.000000

  8 P  1.72500000E-01  1.000000

  9 P  4.91000000E-02  1.000000

 10 D  1.65400000E+00  1.000000

 11 D  4.69000000E-01  1.000000

 12 D  1.51000000E-01  1.000000

 13 F  1.09300000E+00  1.000000

 14 F  3.64000000E-01  1.000000



 Summary of "ao basis" -> "ao basis" (cartesian)
 ------------------------------------------------------------------------------
       Tag                 Description            Shells   Functions and Types
 ---------------- ------------------------------  ------  ---------------------
 N                        aug-cc-pVTZ               14       55   5s4p3d2f




 Summary of "ao basis" -> "ao basis" (cartesian)
 ------------------------------------------------------------------------------
       Tag                 Description            Shells   Functions and Types
 ---------------- ------------------------------  ------  ---------------------
 N                        aug-cc-pVTZ               14       55   5s4p3d2f




                         Geometry "geometry" -> "geometry"
                         ---------------------------------

 Output coordinates in angstroms (scale by  1.889725989 to convert to a.u.)

  No.       Tag          Charge          X              Y              Z
 ---- ---------------- ---------- -------------- -------------- --------------
    1 N                    7.0000     0.00000000     0.00000000     0.00000000

      Atomic Mass 
      ----------- 

      N                 14.003070


 Effective nuclear repulsion energy (a.u.)       0.0000000000

            Nuclear Dipole moment (a.u.) 
            ----------------------------
        X                 Y               Z
 ---------------- ---------------- ----------------
     0.0000000000     0.0000000000     0.0000000000


                      Basis "ao basis" -> "ao basis" (cartesian)
                      -----
  N (Nitrogen)
  ------------
            Exponent  Coefficients 
       -------------- ---------------------------------------------------------
  1 S  1.14200000E+04  0.421209
  1 S  1.71200000E+03  0.784862
  1 S  3.89300000E+02  1.327398
  1 S  1.10000000E+02  1.998987
  1 S  3.55700000E+01  2.474876
  1 S  1.25400000E+01  2.106008
  1 S  4.64400000E+00  0.801375
  1 S  5.11800000E-01 -0.003753

  2 S  1.14200000E+04 -0.156504
  2 S  1.71200000E+03 -0.293447
  2 S  3.89300000E+02 -0.499240
  2 S  1.10000000E+02 -0.775267
  2 S  3.55700000E+01 -1.028825
  2 S  1.25400000E+01 -1.084240
  2 S  4.64400000E+00 -0.672298
  2 S  5.11800000E-01  0.447213

  3 S  1.29300000E+00  0.864190

  4 S  1.78700000E-01  0.195886

  5 S  5.76000000E-02  0.083797

  6 P  2.66300000E+01  3.432542
  6 P  5.94800000E+00  3.296915
  6 P  1.74200000E+00  2.312025

  7 P  5.55000000E-01  0.682820

  8 P  1.72500000E-01  0.158462

  9 P  4.91000000E-02  0.032945

 10 D  1.65400000E+00  3.970513

 11 D  4.69000000E-01  0.437484

 12 D  1.51000000E-01  0.060203

 13 F  1.09300000E+00  1.798249

 14 F  3.64000000E-01  0.151507



    Basis function labels
    ---------------------
       No.  Atm El Type
       ---  --- -- ----
        1    1 N  s          
        2    1 N  s          
        3    1 N  s          
        4    1 N  s          
        5    1 N  s          
        6    1 N  px         
        7    1 N  py         
        8    1 N  pz         
        9    1 N  px         
       10    1 N  py         
       11    1 N  pz         
       12    1 N  px         
       13    1 N  py         
       14    1 N  pz         
       15    1 N  px         
       16    1 N  py         
       17    1 N  pz         
       18    1 N  dxx        
       19    1 N  dxy        
       20    1 N  dxz        
       21    1 N  dyy        
       22    1 N  dyz        
       23    1 N  dzz        
       24    1 N  dxx        
       25    1 N  dxy        
       26    1 N  dxz        
       27    1 N  dyy        
       28    1 N  dyz        
       29    1 N  dzz        
       30    1 N  dxx        
       31    1 N  dxy        
       32    1 N  dxz        
       33    1 N  dyy        
       34    1 N  dyz        
       35    1 N  dzz        
       36    1 N  fxxx       
       37    1 N  fxxy       
       38    1 N  fxxz       
       39    1 N  fxyy       
       40    1 N  fxyz       
       41    1 N  fxzz       
       42    1 N  fyyy       
       43    1 N  fyyz       
       44    1 N  fyzz       
       45    1 N  fzzz       
       46    1 N  fxxx       
       47    1 N  fxxy       
       48    1 N  fxxz       
       49    1 N  fxyy       
       50    1 N  fxyz       
       51    1 N  fxzz       
       52    1 N  fyyy       
       53    1 N  fyyz       
       54    1 N  fyzz       
       55    1 N  fzzz       
  int_init: cando_txs set to always be  F

 Schwarz integral screening summary 
 ---------------------------------- 

        No. of atom pairs =       1
       No. of shell pairs =     105

 Atomic screening 

   value      no.     value      no.     value      no.     value      no.   
  -------- ------    -------- ------    -------- ------    -------- ------   
  0.00D+00      0    1.00D-13      0    1.00D-12      0    1.00D-11      0
  1.00D-10      0    1.00D-09      0    1.00D-08      0    1.00D-07      0
  1.00D-06      0    1.00D-05      0    1.00D-04      0    1.00D-03      0
  1.00D-02      0    1.00D-01      0    1.00D+00      1    1.00D+01      0


 Shell screening 

   value      no.     value      no.     value      no.     value      no.   
  -------- ------    -------- ------    -------- ------    -------- ------   
  0.00D+00      0    1.00D-13      0    1.00D-12      0    1.00D-11      0
  1.00D-10      0    1.00D-09      0    1.00D-08      0    1.00D-07      0
  1.00D-06      0    1.00D-05      0    1.00D-04      0    1.00D-03      0
  1.00D-02      5    1.00D-01     32    1.00D+00     68    1.00D+01      0


  Caching 1-el integrals 
  atom                     1  - neighbor  & S                     1   10.000000000000000       exp AB    4.9100000000000039E-002   4.9100000000000039E-002
 zmins =     0.049100000    0.049100000 lprod =   2 range =        15.04 acc   0.10D-06
 sh     0.000000000
  Center:                     1  Radial Pts. & Wghts. 
    1        0.000013130           6.7903777E-15
    2        0.000105039           1.7384047E-12
    3        0.000354517           4.4558141E-11
    4        0.000840380           4.4517090E-10
    5        0.001641507           2.6543302E-09
    6        0.002836884           1.1418941E-08
    7        0.004505667           3.9220091E-08
    8        0.006727249           1.1424962E-07
    9        0.009581355           2.9349614E-07
   10        0.013148135           6.8284392E-07
   11        0.017508284           1.4664546E-06
   12        0.022743170           2.9481145E-06
   13        0.028934979           5.6077046E-06
   14        0.036166877           1.0176502E-05
   15        0.044523188           1.7735676E-05
   16        0.054089592           2.9843117E-05
   17        0.064953335           4.8694685E-05
   18        0.077203474           7.7327082E-05
   19        0.090931127           1.1987095E-04
   20        0.106229764           1.8186448E-04
   21        0.123195512           2.7063985E-04
   22        0.141927500           3.9579746E-04
   23        0.162528231           5.6978589E-04
   24        0.185103994           8.0860952E-04
   25        0.209765313           1.1326906E-03
   26        0.236627453           1.5679182E-03
   27        0.265810964           2.1469247E-03
   28        0.297442302           2.9106387E-03
   29        0.331654500           3.9101764E-03
   30        0.368587935           5.2091467E-03
   31        0.408391171           6.8864663E-03
   32        0.451221911           9.0398028E-03
   33        0.497248065           1.1789797E-02
   34        0.546648965           1.5285253E-02
   35        0.599616723           1.9709537E-02
   36        0.656357800           2.5288497E-02
   37        0.717094775           3.2300290E-02
   38        0.782068385           4.1087638E-02
   39        0.851539877           5.2073177E-02
   40        0.925793716           6.5778755E-02
   41        1.005140746           8.2849846E-02
   42        1.089921869           1.0408659E-01
   43        1.180512377           1.3048349E-01
   44        1.277327055           1.6328056E-01
   45        1.380826253           2.0402957E-01
   46        1.491523137           2.5468065E-01
   47        1.609992415           3.1769638E-01
   48        1.736880925           3.9620334E-01
   49        1.872920562           4.9419556E-01
   50        2.018944212           6.1681041E-01
   51        2.175905579           7.7070720E-01
   52        2.344904079           9.6459316E-01
   53        2.527216486           1.2099648E+00
   54        2.724337613           1.5221690E+00
   55        2.938033337           1.9219472E+00
   56        3.170410761           2.4377289E+00
   57        3.424012604           3.1091084E+00
   58        3.701946633           3.9922489E+00
   59        4.008066999           5.1685182E+00
   60        4.347234658           6.7587387E+00
   61        4.725702258           8.9475939E+00
   62        5.151702503           1.2027311E+01
   63        5.636384498           1.6480062E+01
   64        6.195378638           2.3143702E+01
   65        6.851575957           3.3572889E+01
   66        7.640464495           5.0911426E+01
   67        8.621496254           8.2312711E+01
   68        9.906122586           1.4712915E+02
   69       11.744555123           3.1488176E+02
   70       14.935198212           1.0333902E+03
     irreducible set of Lebedev Angular points ;
  0.009523809523810  1.000000000000000  0.000000000000000  0.000000000000000
  0.032142857142857  0.577350269189626  0.577350269189626  0.577350269189626
  0.028571428571429  0.459700843380983  0.000000000000000  0.888073833977115
   total no. of   reducible points:  38; test:  1.00000000
  0.012698412698413  1.000000000000000  0.000000000000000  0.000000000000000
  0.022574955908289  0.707106781186547  0.707106781186547  0.000000000000000
  0.021093750000000  0.577350269189626  0.577350269189626  0.577350269189626
  0.020173335537919  0.301511344577764  0.301511344577764  0.904534033733291
   total no. of   reducible points:  50; test:  1.00000000
  0.000513067179734  1.000000000000000  0.000000000000000  0.000000000000000
  0.016604069565742  0.707106781186547  0.707106781186547  0.000000000000000
 -0.029586038961039  0.577350269189626  0.577350269189626  0.577350269189626
  0.026576207082159  0.480384461415261  0.480384461415261  0.733799385705343
  0.016522170993716  0.320772648980776  0.000000000000000  0.947156221362588
   total no. of   reducible points:  74; test:  1.00000000
  0.011544011544012  1.000000000000000  0.000000000000000  0.000000000000000
  0.011943909085856  0.577350269189626  0.577350269189626  0.577350269189626
  0.011110555710603  0.369602846454150  0.369602846454150  0.852518311701268
  0.011876501294537  0.694354006602666  0.694354006602666  0.189063552885395
  0.011812303746904  0.374243039090341  0.000000000000000  0.927330657151172
   total no. of   reducible points:  86; test:  1.00000000
  0.003828270494937  1.000000000000000  0.000000000000000  0.000000000000000
  0.009793737512488  0.577350269189626  0.577350269189626  0.577350269189626
  0.008211737283191  0.185115635344736  0.185115635344736  0.965124035086594
  0.009942814891178  0.690421048382292  0.690421048382292  0.215957291845848
  0.009595471336071  0.395689473055942  0.395689473055942  0.828769981252592
  0.009694996361663  0.478369028812150  0.000000000000000  0.878158910604066
   total no. of   reducible points: 110; test:  1.00000000
  0.000599631368862  1.000000000000000  0.000000000000000  0.000000000000000
  0.007372999718621  0.707106781186547  0.707106781186547  0.000000000000000
  0.007210515360144  0.577350269189626  0.577350269189626  0.577350269189626
  0.007116355493118  0.676441040011426  0.676441040011426  0.291298882209527
  0.006753829486314  0.417496122796545  0.417496122796545  0.807089818359583
  0.007574394159054  0.157467667203908  0.157467667203908  0.974888643677173
  0.006991087353303  0.140355381171318  0.449332832326956  0.882270011260323
   total no. of   reducible points: 146; test:  1.00000000
  0.005544842902037  1.000000000000000  0.000000000000000  0.000000000000000
  0.006071332770671  0.707106781186547  0.707106781186547  0.000000000000000
  0.006383674773515  0.577350269189626  0.577350269189626  0.577350269189626
  0.005183387587748  0.255125262111413  0.255125262111413  0.932642590312691
  0.006317929009814  0.674360146036277  0.674360146036277  0.300793595137701
  0.006201670006589  0.431891069671941  0.431891069671941  0.791795559393492
  0.005477143385137  0.261393136033599  0.000000000000000  0.965232421976448
  0.005968383987681  0.499045316179604  0.144663074432512  0.854415804684659
   total no. of   reducible points: 170; test:  1.00000000
  0.001782340447245  1.000000000000000  0.000000000000000  0.000000000000000
  0.005716905949977  0.707106781186547  0.707106781186547  0.000000000000000
  0.005573383178849  0.577350269189626  0.577350269189626  0.577350269189626
  0.005608704082588  0.671297344269523  0.671297344269523  0.314196994182586
  0.005158237711805  0.289246562757544  0.289246562757544  0.912509096867474
  0.005518771467274  0.444693317871744  0.444693317871744  0.777493219314767
  0.004106777028169  0.129933544765007  0.129933544765007  0.982972302707253
  0.005051846064615  0.345770219761128  0.000000000000000  0.938319218137592
  0.005530248916233  0.159041710538353  0.836036015482459  0.525118572443642
   total no. of   reducible points: 194; test:  1.00000000
 -0.055226399197273  1.000000000000000  0.000000000000000  0.000000000000000
  0.004450274607445  0.577350269189626  0.577350269189626  0.577350269189626
  0.004496841067921  0.449204468739761  0.449204468739761  0.772289253148364
  0.005049153450479  0.252041949021020  0.252041949021020  0.934317778845812
  0.003976408018052  0.698190665844724  0.698190665844724  0.158302205463478
  0.004401400650381  0.658740524346096  0.658740524346096  0.363485684956727
  0.017245443505444  0.040385440500977  0.040385440500977  0.998367683967727
  0.004231083095357  0.582384230971558  0.000000000000000  0.812913653173365
  0.005198069864064  0.354587739051869  0.000000000000000  0.935022745880593
  0.004695720972569  0.227218180899819  0.486466153588665  0.843636521068894
   total no. of   reducible points: 230; test:  1.00000000
 -0.001313769127327  1.000000000000000  0.000000000000000  0.000000000000000
 -0.002522728704859  0.707106781186547  0.707106781186547  0.000000000000000
  0.004186853881701  0.577350269189626  0.577350269189626  0.577350269189626
  0.005315167977811  0.703937339158548  0.703937339158548  0.094575076403713
  0.004047142377086  0.101252624857241  0.101252624857241  0.989694807462905
  0.004112482394407  0.464744872642054  0.464744872642054  0.753673939250816
  0.003595584899759  0.327742065497163  0.327742065497163  0.886098344997499
  0.004256131351428  0.662033866369997  0.662033866369997  0.351315128564633
  0.004229582700647  0.850650808352040  0.000000000000000  0.525731112119134
  0.004080914225781  0.323348454269290  0.115311201100970  0.939227929749916
  0.004071467593831  0.231479015871260  0.524493924092236  0.819343388819120
   total no. of   reducible points: 266; test:  1.00000000
  0.000854591172513  1.000000000000000  0.000000000000000  0.000000000000000
  0.003599119285026  0.577350269189626  0.577350269189626  0.577350269189626
  0.003449788424306  0.351564034557011  0.351564034557011  0.867643624544083
  0.003604822601420  0.656632941021961  0.656632941021961  0.371034178384821
  0.003576729661743  0.472905413258100  0.472905413258100  0.743452042987556
  0.002352101413689  0.096183085226148  0.096183085226148  0.990705621379408
  0.003108953122414  0.221964523629418  0.221964523629418  0.949454317226443
  0.003650045807677  0.701176641608955  0.701176641608955  0.129238672710514
  0.002982344963172  0.264415288706066  0.000000000000000  0.964408914879206
  0.003600820932216  0.571895589187896  0.000000000000000  0.820326419827759
  0.003571540554273  0.251003475177047  0.800072749407395  0.544867737258077
  0.003392312205006  0.123354853258333  0.412772408316853  0.902442529533000
   total no. of   reducible points: 302; test:  1.00000000
  0.003006796749454  1.000000000000000  0.000000000000000  0.000000000000000
  0.003050627745651  0.577350269189626  0.577350269189626  0.577350269189626
  0.001621104600289  0.706896546391232  0.706896546391232  0.024383301669356
  0.003005701484902  0.479468262571203  0.479468262571203  0.734996850587746
  0.002990992529654  0.192753315487802  0.192753315487802  0.962129055136014
  0.002982170644108  0.693035796132712  0.693035796132712  0.198501311223365
  0.002721564237311  0.360830211552009  0.360830211552009  0.860001812127547
  0.003033513795811  0.649848616149617  0.649848616149617  0.394199888605839
  0.003007949555219  0.193294501323034  0.000000000000000  0.981140782843257
  0.002881964603055  0.380049491989930  0.000000000000000  0.924966152698679
  0.002958357626536  0.289955882549957  0.793453785658232  0.535123047718276
  0.003036020026407  0.096841214551040  0.828080150668686  0.552182074349399
  0.002832187403926  0.183343464704166  0.907465826530513  0.378009189874487
   total no. of   reducible points: 350; test:  1.00000000
  0.000526589796822  1.000000000000000  0.000000000000000  0.000000000000000
  0.002548219972003  0.707106781186547  0.707106781186547  0.000000000000000
  0.002512317418927  0.577350269189626  0.577350269189626  0.577350269189626
  0.002530403801186  0.690934630750911  0.690934630750911  0.212646824707552
  0.002014279020919  0.177483605460916  0.177483605460916  0.967987158791473
  0.002501725168403  0.491434263778475  0.491434263778475  0.719016501040843
  0.002513267174598  0.645666470742426  0.645666470742426  0.407712664897770
  0.002302694782227  0.286128901030764  0.286128901030764  0.914472801120872
  0.001462495621595  0.075680843671780  0.075680843671780  0.994255912631278
  0.002445373437313  0.392725976336800  0.392725976336800  0.831584400419232
  0.002417442375639  0.881813287779429  0.000000000000000  0.471598691151316
  0.001910951282180  0.977642811118265  0.000000000000000  0.210272522857307
  0.002416930044325  0.205482369640304  0.868946032287241  0.450233038258263
  0.002512236854563  0.590515704892527  0.799927854385729  0.106801826075805
  0.002496644054553  0.555015236107681  0.771746262691590  0.310428403516654
  0.002236607760438  0.937180985855372  0.334436314534346  0.099217696364292
   total no. of   reducible points: 434; test:  1.00000000
  0.000309512129531  1.000000000000000  0.000000000000000  0.000000000000000
  0.001852379698597  0.577350269189626  0.577350269189626  0.577350269189626
  0.001871790639278  0.704095493822747  0.704095493822747  0.092190407076898
  0.001858812585438  0.680774406645524  0.680774406645524  0.270356088359165
  0.001852028828296  0.637254693925875  0.637254693925875  0.433373868777154
  0.001846715956151  0.504441970780036  0.504441970780036  0.700768575373573
  0.001818471778163  0.421576178401097  0.421576178401097  0.802836877335274
  0.001749564657281  0.331792073647212  0.331792073647212  0.883078727934133
  0.001617210647254  0.238473670142189  0.238473670142189  0.941414158220403
  0.001384737234852  0.145903644915776  0.145903644915776  0.978480583762694
  0.000976433116505  0.060950341155072  0.060950341155072  0.996278129754016
  0.001857161196774  0.611684344200988  0.000000000000000  0.791101929626902
  0.001705153996396  0.396475534819986  0.000000000000000  0.918045287711454
  0.001300321685886  0.172478200990772  0.000000000000000  0.985013335028002
  0.001842866472905  0.561026380862206  0.351828092773352  0.749310611904116
  0.001802658934377  0.474239284255198  0.263471665593795  0.840047488359050
  0.001849830560444  0.598412649788538  0.181664084036021  0.780320742479920
  0.001713904507107  0.379103540769556  0.172079522565688  0.909213475092374
  0.001555213603397  0.277867319058624  0.082130215819325  0.957102074310073
  0.001802239128009  0.503356427107512  0.089992058420749  0.859379855890721
   total no. of   reducible points: 590; test:  1.00000000
  qrot: 

              1        2        3      
    1    1.0000   0.0000   0.0000
    2    0.0000   1.0000   0.0000
    3    0.0000   0.0000   1.0000
  me                     0   done genpts
  me                     1   done genpts
  me                     2   done genpts
  me                     3   done genpts
  me                     4   done genpts
  me                     7   done genpts
  me                     5   done genpts
  me                     6   done genpts
  me                     0   done uprt
  me                     1   done uprt
  me                     2   done uprt
  me                     3   done uprt
  me                     4   done uprt
  me                     5   done uprt
  me                     6   done uprt
  me                     7   done uprt
  me                     0  done mem
  me                     1  done mem
  me                     2  done mem
  me                     3  done mem
  me                     4  done mem
  me                     5  done mem
  me                     6  done mem
  me                     7  done mem
  dftinpanae: itol2e                     8  iaoacc                    14  tol_rho    1.0000000000000000E-010

            General Information
            -------------------
          SCF calculation type: DFT
          Wavefunction type:  spin polarized.
          No. of atoms     :     1
          No. of electrons :     7
           Alpha electrons :     5
            Beta electrons :     2
          Charge           :     0
          Spin multiplicity:     4
          Use of symmetry is: off; symmetry adaption is: off
          Maximum number of iterations:  50
          AO basis - number of functions:    55
                     number of shells:    14
          Convergence on energy requested:  1.00D-06
          Convergence on density requested:  1.00D-05
          Convergence on gradient requested:  5.00D-04

              XC Information
              --------------
                     Hartree-Fock (Exact) Exchange  1.000          
                     LC-wPBE(h)Exchange Functional  1.000          
            Perdew 1991 LDA Correlation Functional  1.000 local    
           PerdewBurkeErnz. Correlation Functional  1.000 non-local

           Range-Separation Parameters        
           ---------------------------
           Alpha           :  0.00
           Beta            :  1.00
           Gamma           :  0.41
           Short-Range HF  :     F

             Grid Information
             ----------------
          Grid used for XC integration:  fine      
          Radial quadrature: Mura-Knowles        
          Angular quadrature: Lebedev. 
          Tag              B.-S. Rad. Rad. Pts. Rad. Cut. Ang. Pts.
          ---              ---------- --------- --------- ---------
          N                   0.65       70           8.0       590
          Grid pruning is: on 
          Number of quadrature shells:    70
          Spatial weights used:  Erf1

          Convergence Information
          -----------------------
          Convergence aids based upon iterative change in 
          total energy or number of iterations. 
          Levelshifting, if invoked, occurs when the 
          HOMO/LUMO gap drops below (HL_TOL):  1.00D-02
          DIIS, if invoked, will attempt to extrapolate 
          using up to (NFOCK): 10 stored Fock matrices.

                    Damping( 0%)  Levelshifting(0.5)       DIIS
                  --------------- ------------------- ---------------
          dE  on:    start            ASAP                start   
          dE off:    2 iters         50 iters            50 iters 


      Screening Tolerance Information
      -------------------------------
          Density screening/tol_rho:  1.00D-10
          AO Gaussian exp screening on grid/accAOfunc:  14
          CD Gaussian exp screening on grid/accCDfunc:  20
          XC Gaussian exp screening on grid/accXCfunc:  20
          Schwarz screening/accCoul:  1.00D-08



                         Geometry "geometry" -> "geometry"
                         ---------------------------------

 Output coordinates in angstroms (scale by  1.889725989 to convert to a.u.)

  No.       Tag          Charge          X              Y              Z
 ---- ---------------- ---------- -------------- -------------- --------------
    1 N                    7.0000     0.00000000     0.00000000     0.00000000

      Atomic Mass 
      ----------- 

      N                 14.003070


 Effective nuclear repulsion energy (a.u.)       0.0000000000

            Nuclear Dipole moment (a.u.) 
            ----------------------------
        X                 Y               Z
 ---------------- ---------------- ----------------
     0.0000000000     0.0000000000     0.0000000000

  
  CAM type calculations without CDFIT are
  only available with the direct option.
  Forcing Direct SCF
  


     <<<<<<    Before call to DFT_SCF.    >>>>>>
     <<<<<< date:  May  8  time: 11:53:29 >>>>>>


 Setting tolerance for linear dependence to 1.00D-05



 Setting tolerance for linear dependence to 1.00D-05


 Setting tolerance for linear dependence to 1.00D-05

 Setting tolerance for linear dependence to 1.00D-05

 Setting tolerance for linear dependence to 1.00D-05
 Setting tolerance for linear dependence to 1.00D-05
 Setting tolerance for linear dependence to 1.00D-05
 Setting tolerance for linear dependence to 1.00D-05
  lindep tolerance =    1.0000000000000001E-005
  lindep tolerance =    1.0000000000000001E-005
  lindep tolerance =    1.0000000000000001E-005
  lindep tolerance =    1.0000000000000001E-005
  lindep tolerance =    1.0000000000000001E-005
  lindep tolerance =    1.0000000000000001E-005
  lindep tolerance =    1.0000000000000001E-005
  lindep tolerance =    1.0000000000000001E-005


     <<<<<<    Before 3c-2e initialize.   >>>>>>
     <<<<<< date:  May  8  time: 11:53:29 >>>>>>


 Setting fock-build task_bf   :      -1
                    maxquartet:   10000
                    maxeri    :  129600
                    maxscr    :       0
                    intacc    : 0.0D+00
                    denscreen : T
                    dentol    : 1.0D-06


      Superposition of Atomic Density Guess
      -------------------------------------

 Sum of atomic energies:         -54.31017225

      Non-variational initial energy
      ------------------------------

 Total energy =     -53.827581
 1-e energy   =     -73.818344
 2-e energy   =      19.990763
 HOMO         =      -0.205426
 LUMO         =      -0.205426


 Setting fock-build task_bf   :      -1
                    maxquartet:   10000
                    maxeri    :  129600
                    maxscr    :       0
                    intacc    : 0.0D+00
                    denscreen : T
                    dentol    : 1.0D-06


 Wrote molecular orbitals to ./n.movecs

  WARNING: movecs_in_org=atomic not equal to movecs_in=./n.movecs
   Time after variat. SCF:      0.2

 Setting fock-build task_bf   :      -1
                    maxquartet:   10000
                    maxeri    :  129600
                    maxscr    :       0
                    intacc    : 0.0D+00
                    denscreen : T
                    dentol    : 1.0D-06

   Time prior to 1st pass:      0.2


     <<<<<<      Before SCF iter loop.    >>>>>>
     <<<<<< date:  May  8  time: 11:53:29 >>>>>>

           DAMPING=T LEVELSHIFTING=F DIISING=T
          itol2e= 8 iAOacc=12 iXCacc=20


     <<<<<<            calling 1-e int    >>>>>>
     <<<<<< date:  May  8  time: 11:53:29 >>>>>>

    Kinetic Matrix Time:          0.0s

           Kinetic energy =     53.396428031467

    Potential Matrix Time:          0.0s


     <<<<<<    Before call to GETVXC.     >>>>>>
     <<<<<< date:  May  8  time: 11:53:29 >>>>>>



     <<<<<<    Before call to fock_2e.    >>>>>>
     <<<<<< date:  May  8  time: 11:53:29 >>>>>>



     <<<<<<     After call to fock_2e.    >>>>>>
     <<<<<< date:  May  8  time: 11:53:29 >>>>>>

    Fock_2e Build Time:          0.1s
  *** grid_quadv0:                    calc_type:                    1
  *** grid_quadv0:                    grid_written: F
  *** grid_quadv0:                    grad: T
  *** grid_quadv0:                    kske: F
  *** grid_quadv0:                    kslap: F
  *** grid_quadv0:                    calc_type:                    1
  *** grid_quadv0:                    grid_written: F
  *** grid_quadv0:                    grad: T
  *** grid_quadv0:                    kske: F
  *** grid_quadv0:                    kslap: F
  *** grid_quadv0:                    do_scf: T
  *** grid_quadv0:                    fde_option:                    0
  *** grid_quadv0:                    n_per_rec:                 3070
  *** grid_quadv0:                    calc_type:                    1
  *** grid_quadv0:                    grid_written: F
  *** grid_quadv0:                    grad: T
  *** grid_quadv0:                    kske: F
  *** grid_quadv0:                    kslap: F
  *** grid_quadv0:                    do_scf: T
  *** grid_quadv0:                    fde_option:                    0
  *** grid_quadv0:                    n_per_rec:                 3070
  *** grid_quadv0:                    calc_type:                    1
  *** grid_quadv0:                    grid_written: F
  *** grid_quadv0:                    grad: T
  *** grid_quadv0:                    kske: F
  *** grid_quadv0:                    kslap: F
  *** grid_quadv0:                    do_scf: T
  *** grid_quadv0:                    fde_option:                    0
  *** grid_quadv0:                    n_per_rec:                 3070
  *** grid_quadv0:                    calc_type:                    1
  *** grid_quadv0:                    grid_written: F
  *** grid_quadv0:                    grad: T
  *** grid_quadv0:                    kske: F
  *** grid_quadv0:                    kslap: F
  *** grid_quadv0:                    do_scf: T
  *** grid_quadv0:                    fde_option:                    0
  *** grid_quadv0:                    calc_type:                    1
  *** grid_quadv0:                    grid_written: F
  *** grid_quadv0:                    grad: T
  *** grid_quadv0:                    kske: F
  *** grid_quadv0:                    kslap: F
  *** grid_quadv0:                    do_scf: T
  *** grid_quadv0:                    fde_option:                    0
  *** grid_quadv0:                    n_per_rec:                 3070
  *** grid_quadv0:                    calc_type:                    1
  *** grid_quadv0:                    grid_written: F
  *** grid_quadv0:                    grad: T
  *** grid_quadv0:                    kske: F
  *** grid_quadv0:                    kslap: F
  *** grid_quadv0:                    do_scf: T
  *** grid_quadv0:                    fde_option:                    0
  *** grid_quadv0:                    n_per_rec:                 3070
  *** grid_quadv0:                    calc_type:                    1
  *** grid_quadv0:                    grid_written: F
  *** grid_quadv0:                    grad: T
  *** grid_quadv0:                    kske: F
  *** grid_quadv0:                    kslap: F
  *** grid_quadv0:                    do_scf: T
  *** grid_quadv0:                    fde_option:                    0
  *** grid_quadv0:                    n_per_rec:                 3070
  *** grid_quadv0:                    do_scf: T
  *** grid_quadv0:                    fde_option:                    0
  *** grid_quadv0:                    n_per_rec:                 3070
  *** grid_quadv0:                    n_per_rec:                 3070
   0: nuse=   8 avail= 12500000Mb on .
   1: nuse=   8 avail= 12500000Mb on .
   3: nuse=   8 avail= 12500000Mb on .
   4: nuse=   8 avail= 12500000Mb on .
   5: nuse=   8 avail= 12500000Mb on .
   6: nuse=   8 avail= 12500000Mb on .
   7: nuse=   8 avail= 12500000Mb on .
 l_cube input   11.00

  atom type   l_cube   no. cubes   segmts   rad   sub
 ----------- -------- ----------- -------- ----- -----
        1     10.00        34         3      15     8
   2: nuse=   8 avail= 12500000Mb on .

 Grid_pts file          = ./n.gridpts.0
 Record size in doubles =  12289        No. of grid_pts per rec  =   3070
 Max. records in memory =      3        Max. recs in file   = 126656358

 me   0 NQTOTC NQ/cube    3976     220
 me   1 NQTOTC NQ/cube    2572    2572
 me   2 NQTOTC NQ/cube    2655     885
 me   3 NQTOTC NQ/cube    2340     585
 me   4 NQTOTC NQ/cube    2249    2249
 me   5 NQTOTC NQ/cube    2048    1024
 me   6 NQTOTC NQ/cube    2002    1001
 me   7 NQTOTC NQ/cube    2146     715

 XC quadr. integrated density :       7.000000 npts:    19888 nctrs:        1

    Fock_xc Build Time:          0.0s


     <<<<<<    Before call to GETVCOUL.   >>>>>>
     <<<<<< date:  May  8  time: 11:53:29 >>>>>>



     <<<<<<    End of parallel region.    >>>>>>
     <<<<<< date:  May  8  time: 11:53:29 >>>>>>

    Total Fock Matrix Build Time:          0.1s
 Etnew, Ecore, Ecoul, Exc(1), Exc(2), Totsic:   -54.509540054817592       -72.856498446774793        24.895667909401933       -6.5487095174447374        0.0000000000000000        0.0000000000000000     
  delta =   -54.509540054817592     
  delta =   -54.509540054817592     


         Total DFT energy =      -54.509540054818
      One electron energy =      -72.856498446775
  delta =   -54.509540054817592     
  delta =   -54.509540054817592     
  delta =   -54.509540054817592     
  delta =   -54.509540054817592     
  delta =   -54.509540054817592     
  delta =   -54.509540054817592     
           Coulomb energy =       24.895667909402
    Exchange-Corr. energy =       -6.548709517445
 Nuclear repulsion energy =        0.000000000000

 Numeric. integr. density =        6.999999988433

     Total iterative time =      1.4s




     <<<<<<        calling diis driver    >>>>>>
     <<<<<< date:  May  8  time: 11:53:29 >>>>>>

 nhist                     1  pulay matrix 
   0.0000E+00
  -1.0000E+00   1.8329E-01


     <<<<<<         called diis driver    >>>>>>
     <<<<<< date:  May  8  time: 11:53:29 >>>>>>


 global array: fock transf[1:55,1:55],  handle: -940 

            1           2           3           4           5           6  
       ----------- ----------- ----------- ----------- ----------- -----------
   1       5.33852    -0.00000    -0.00000     0.00000     3.77122     0.00000
   2      -0.00000     8.74039     0.00000     0.00000     0.00000    -0.53152
   3      -0.00000     0.00000     8.74039    -0.00000     0.00000     1.41515
   4       0.00000     0.00000    -0.00000     8.74039     0.00000    -0.68277
   5       3.77122     0.00000     0.00000     0.00000     6.71352     0.00000
   6       0.00000    -0.53152     1.41515    -0.68277     0.00000     1.93576
   7      -0.00000     0.58360    -0.49141    -1.47284    -0.00000    -0.00000
   8      -0.00000     1.45884     0.71218     0.34043    -0.00000    -0.00000
   9      -0.00000     0.00000    -0.00000     0.00000    -0.00000    -0.00000
  10      -0.63008     0.00000    -0.00000     0.00000    -1.42557     0.00000
  11      -0.00000     0.00000     0.00000    -0.00000     0.00000     0.00000
  12       0.00000     0.00000    -0.00000     0.00000     0.00000     0.00000
  13       0.00000     0.00000     0.00000    -0.00000     0.00000    -0.00000
  14       1.02891    -0.00000     0.00000    -0.00000     0.97511    -0.00000
  15      -0.00000     0.08177    -0.08015     0.06404     0.00000     0.46555
  16       0.00000    -0.01735    -0.09151    -0.09239    -0.00000     0.13275
  17       0.00000    -0.10111    -0.04912     0.06763    -0.00000     0.14375
  18       0.00000    -0.00000     0.00000    -0.00000    -0.00000     0.00000
  19      -0.00000    -0.00000    -0.00000    -0.00000    -0.00000    -0.00000
  20       0.00000    -0.00000     0.00000     0.00000    -0.00000    -0.00000
  21       0.00000     0.00000     0.00000     0.00000     0.00000    -0.00000
  22      -0.00000     0.00000    -0.00000     0.00000     0.00000    -0.00000
  23      -0.00000    -0.00000     0.00000     0.00000     0.00000     0.00000
  24      -0.00000     0.00000    -0.00000     0.00000     0.00000    -0.00000
  25      -0.00000     0.00000     0.00000    -0.00000    -0.00000    -0.00000
  26       0.00000     0.00000     0.00000    -0.00000     0.00000     0.00000
  27       0.00000     0.00000    -0.00000    -0.00000    -0.00000     0.00000
  28      -0.00000    -0.00000    -0.00000     0.00000     0.00000    -0.00000
  29      -0.00000    -0.00000     0.00000     0.00000    -0.00000    -0.00000
  30      -0.00000    -0.01087    -0.01155    -0.00037     0.00000    -0.17364
  31       0.00000     0.00198    -0.00236     0.01556    -0.00000    -0.25275
  32      -0.00000    -0.01139     0.01061     0.00306     0.00000     0.31940
  33      -0.00000     0.02488    -0.44383     0.15112    -0.00000    -0.96081
  34       0.00000     0.45683     0.05699     0.09216    -0.00000    -0.29049
  35       0.00000     0.10546    -0.14216    -0.43486    -0.00000     0.05121
  36       0.20625     0.00000     0.00000     0.00000     0.72225    -0.00000
  37       0.00000    -0.00000    -0.00000    -0.00000    -0.00000     0.00000
  38       0.00000     0.00000    -0.00000    -0.00000    -0.00000    -0.00000
  39       0.00000     0.00000    -0.00000     0.00000    -0.00000     0.00000
  40      -0.00000    -0.00000     0.00000     0.00000    -0.00000    -0.00000
  41      -0.00000    -0.00000    -0.00000     0.00000     0.00000     0.00000
  42      -0.00000    -0.08047    -0.04280     0.08711     0.00000    -0.06226
  43      -0.00000     0.06796    -0.10564     0.01088    -0.00000    -0.15556
  44      -0.00000    -0.06930    -0.05390    -0.09050     0.00000     0.01801
  45       0.00000     0.00000    -0.00000    -0.00000    -0.00000    -0.00000
  46       0.00000     0.00000    -0.00000    -0.00000    -0.00000     0.00000
  47      -0.00130     0.00000    -0.00000     0.00000     0.42418     0.00000
  48       0.00000    -0.08745    -0.08941    -0.14019    -0.00000     0.01187
  49      -0.00000     0.16540    -0.03057    -0.08368     0.00000    -0.05611
  50       0.00000     0.01701    -0.16237     0.09295    -0.00000    -0.22909
  51       0.28198     0.00000     0.00000     0.00000     0.55918     0.00000
  52      -0.00000    -0.09731    -0.01943    -0.06388     0.00000     0.02404
  53      -0.00000     0.03065     0.08731    -0.07324     0.00000     0.05574
  54      -0.00000    -0.05932     0.07698     0.06695    -0.00000     0.03358
  55       0.13676     0.00000     0.00000    -0.00000     0.22363     0.00000

            7           8           9          10          11          12  
       ----------- ----------- ----------- ----------- ----------- -----------
   1      -0.00000    -0.00000    -0.00000    -0.63008    -0.00000     0.00000
   2       0.58360     1.45884     0.00000     0.00000     0.00000     0.00000
   3      -0.49141     0.71218    -0.00000    -0.00000     0.00000    -0.00000
   4      -1.47284     0.34043     0.00000     0.00000    -0.00000     0.00000
   5      -0.00000    -0.00000    -0.00000    -1.42557     0.00000     0.00000
   6      -0.00000    -0.00000    -0.00000     0.00000     0.00000     0.00000
   7       1.93576     0.00000    -0.00000     0.00000    -0.00000    -0.00000
   8       0.00000     1.93576     0.00000     0.00000    -0.00000     0.00000
   9      -0.00000     0.00000     3.49197     0.00000     0.00000    -0.00000
  10       0.00000     0.00000     0.00000     2.07962     0.00000    -0.00000
  11      -0.00000    -0.00000     0.00000     0.00000     3.49197    -0.00000
  12      -0.00000     0.00000    -0.00000    -0.00000    -0.00000     3.49197
  13      -0.00000    -0.00000    -0.00000     0.00000     0.00000    -0.00000
  14       0.00000     0.00000    -0.00000    -3.26141     0.00000     0.00000
  15       0.01673    -0.19495     0.00000    -0.00000     0.00000     0.00000
  16      -0.39666     0.28296    -0.00000     0.00000    -0.00000     0.00000
  17       0.31211     0.37007     0.00000     0.00000     0.00000    -0.00000
  18      -0.00000     0.00000     0.00000     0.00000     0.00000     0.00000
  19       0.00000     0.00000    -0.00000    -0.00000    -0.00000    -0.00000
  20       0.00000    -0.00000     0.00000     0.00000    -0.00000    -0.00000
  21       0.00000    -0.00000    -1.41926    -0.00000    -0.00000    -0.00000
  22      -0.00000     0.00000     0.00000    -0.00000     0.00000     0.00000
  23       0.00000    -0.00000    -0.00000    -0.00000    -0.00000    -0.00000
  24      -0.00000     0.00000    -0.00000     0.00000     0.95151     0.86692
  25       0.00000    -0.00000     0.00000     0.00000     0.99395    -1.00550
  26      -0.00000     0.00000    -0.00000     0.00000     0.34786     0.50174
  27      -0.00000    -0.00000    -0.00000    -0.00000    -0.00000    -0.00000
  28       0.00000    -0.00000     0.00000    -0.00000    -0.00000    -0.00000
  29       0.00000    -0.00000     0.00000    -0.00000     0.00000    -0.00000
  30      -0.00191    -0.40730     0.00000    -0.00000    -0.00000    -0.00000
  31      -0.34671     0.10937    -0.00000    -0.00000    -0.00000     0.00000
  32      -0.27539    -0.13487    -0.00000    -0.00000     0.00000     0.00000
  33       0.01296    -0.29468    -0.00000    -0.00000     0.00000     0.00000
  34       0.13275     0.95297     0.00000     0.00000     0.00000    -0.00000
  35       0.99618    -0.12316    -0.00000     0.00000    -0.00000     0.00000
  36      -0.00000     0.00000    -0.00000    -0.61169    -0.00000    -0.00000
  37       0.00000    -0.00000     0.00000    -0.00000    -0.00000    -0.00000
  38      -0.00000     0.00000     0.00000     0.00000    -0.00000     0.00000
  39      -0.00000    -0.00000    -0.00000    -0.00000    -0.00000    -0.00000
  40       0.00000    -0.00000    -0.00000    -0.00000     0.00000    -0.00000
  41       0.00000     0.00000     0.00000    -0.00000    -0.00000    -0.00000
  42      -0.12429    -0.09527     0.00000    -0.00000     0.00000     0.00000
  43       0.06088     0.02224    -0.00000    -0.00000     0.00000    -0.00000
  44       0.09616    -0.13722    -0.00000    -0.00000     0.00000     0.00000
  45      -0.00000     0.00000     0.00000     0.00000    -0.00000     0.00000
  46       0.00000    -0.00000     0.00000     0.00000    -0.00000     0.00000
  47      -0.00000    -0.00000     0.00000     0.17264     0.00000     0.00000
  48       0.15110    -0.18111    -0.00000     0.00000    -0.00000     0.00000
  49       0.17794     0.14477    -0.00000     0.00000     0.00000     0.00000
  50      -0.03576    -0.04484    -0.00000    -0.00000     0.00000     0.00000
  51       0.00000    -0.00000    -0.00000    -0.20530     0.00000     0.00000
  52       0.01660    -0.06292    -0.00000    -0.00000    -0.00000    -0.00000
  53       0.02936     0.02904     0.00000     0.00000    -0.00000    -0.00000
  54      -0.06062    -0.00316    -0.00000    -0.00000     0.00000    -0.00000
  55       0.00000    -0.00000    -0.00000    -0.14435    -0.00000     0.00000

           13          14          15          16          17          18  
       ----------- ----------- ----------- ----------- ----------- -----------
   1       0.00000     1.02891    -0.00000     0.00000     0.00000     0.00000
   2       0.00000    -0.00000     0.08177    -0.01735    -0.10111    -0.00000
   3       0.00000     0.00000    -0.08015    -0.09151    -0.04912     0.00000
   4      -0.00000    -0.00000     0.06404    -0.09239     0.06763    -0.00000
   5       0.00000     0.97511     0.00000    -0.00000    -0.00000    -0.00000
   6      -0.00000    -0.00000     0.46555     0.13275     0.14375     0.00000
   7      -0.00000     0.00000     0.01673    -0.39666     0.31211    -0.00000
   8      -0.00000     0.00000    -0.19495     0.28296     0.37007     0.00000
   9      -0.00000    -0.00000     0.00000    -0.00000     0.00000     0.00000
  10       0.00000    -3.26141    -0.00000     0.00000     0.00000     0.00000
  11       0.00000     0.00000     0.00000    -0.00000     0.00000     0.00000
  12      -0.00000     0.00000     0.00000     0.00000    -0.00000     0.00000
  13       3.49197    -0.00000    -0.00000    -0.00000     0.00000     0.00000
  14      -0.00000     8.09612    -0.00000     0.00000     0.00000    -0.00000
  15       0.00000    -0.00000     3.31954     0.00000     0.00000    -0.00000
  16      -0.00000     0.00000     0.00000     3.31954    -0.00000     0.00000
  17       0.00000     0.00000     0.00000    -0.00000     3.31954     0.00000
  18       0.00000    -0.00000    -0.00000     0.00000     0.00000     2.75965
  19      -0.00000    -0.00000    -0.00000    -0.00000     0.00000    -0.00000
  20      -0.00000     0.00000    -0.00000    -0.00000     0.00000     0.00000
  21       0.00000     0.00000     0.00000    -0.00000     0.00000     0.00000
  22       0.00000     0.00000     0.00000    -0.00000     0.00000     0.00000
  23      -0.00000    -0.00000    -0.00000    -0.00000    -0.00000    -0.00000
  24      -0.59783     0.00000     0.00000    -0.00000    -0.00000    -0.00000
  25       0.12390    -0.00000    -0.00000     0.00000    -0.00000     0.00000
  26       1.28123    -0.00000    -0.00000    -0.00000     0.00000     0.00000
  27       0.00000     0.00000    -0.00000     0.00000    -0.00000    -1.63452
  28       0.00000    -0.00000     0.00000     0.00000    -0.00000    -0.00205
  29       0.00000     0.00000    -0.00000     0.00000     0.00000    -0.22624
  30       0.00000    -0.00000    -0.00821    -0.77232    -0.98986    -0.00000
  31       0.00000     0.00000    -0.81301     0.75758    -0.58434     0.00000
  32       0.00000    -0.00000     0.95672     0.63715    -0.50506     0.00000
  33      -0.00000    -0.00000     0.53799     0.29833     0.33570     0.00000
  34       0.00000     0.00000     0.44018    -0.24637    -0.48648    -0.00000
  35      -0.00000     0.00000    -0.08908     0.58431    -0.37652     0.00000
  36       0.00000     0.10528     0.00000     0.00000     0.00000     0.00000
  37       0.00000    -0.00000    -0.00000     0.00000    -0.00000    -0.00000
  38       0.00000    -0.00000     0.00000     0.00000     0.00000     0.00000
  39      -0.00000     0.00000    -0.00000     0.00000     0.00000    -0.37431
  40       0.00000    -0.00000    -0.00000     0.00000     0.00000     0.04175
  41       0.00000    -0.00000     0.00000     0.00000    -0.00000    -0.02391
  42       0.00000    -0.00000     0.01071    -0.01207     0.07115    -0.00000
  43      -0.00000     0.00000     0.06493     0.03301    -0.00418     0.00000
  44      -0.00000     0.00000    -0.03150     0.06393     0.01559     0.00000
  45       0.00000    -0.00000     0.00000     0.00000    -0.00000     0.00000
  46       0.00000     0.00000    -0.00000     0.00000    -0.00000     0.00000
  47       0.00000    -1.61642     0.00000     0.00000     0.00000     0.00000
  48      -0.00000    -0.00000    -0.07028     0.17765     0.02943     0.00000
  49       0.00000    -0.00000     0.08326     0.06007    -0.16378     0.00000
  50      -0.00000    -0.00000     0.15966     0.04687     0.09836     0.00000
  51       0.00000    -0.03262     0.00000    -0.00000     0.00000     0.00000
  52      -0.00000    -0.00000    -0.05686     0.05077     0.03508     0.00000
  53       0.00000    -0.00000    -0.04977    -0.00951    -0.06689    -0.00000
  54      -0.00000     0.00000    -0.03650    -0.06613     0.03656    -0.00000
  55       0.00000     0.15705     0.00000     0.00000     0.00000    -0.00000

           19          20          21          22          23          24  
       ----------- ----------- ----------- ----------- ----------- -----------
   1      -0.00000     0.00000     0.00000    -0.00000    -0.00000    -0.00000
   2      -0.00000    -0.00000     0.00000     0.00000    -0.00000     0.00000
   3      -0.00000     0.00000     0.00000    -0.00000     0.00000    -0.00000
   4      -0.00000     0.00000     0.00000     0.00000     0.00000     0.00000
   5      -0.00000    -0.00000     0.00000     0.00000     0.00000     0.00000
   6      -0.00000    -0.00000    -0.00000    -0.00000     0.00000    -0.00000
   7       0.00000     0.00000     0.00000    -0.00000     0.00000    -0.00000
   8       0.00000    -0.00000    -0.00000     0.00000    -0.00000     0.00000
   9      -0.00000     0.00000    -1.41926     0.00000    -0.00000    -0.00000
  10      -0.00000     0.00000    -0.00000    -0.00000    -0.00000     0.00000
  11      -0.00000    -0.00000    -0.00000     0.00000    -0.00000     0.95151
  12      -0.00000    -0.00000    -0.00000     0.00000    -0.00000     0.86692
  13      -0.00000    -0.00000     0.00000     0.00000    -0.00000    -0.59783
  14      -0.00000     0.00000     0.00000     0.00000    -0.00000     0.00000
  15      -0.00000    -0.00000     0.00000     0.00000    -0.00000     0.00000
  16      -0.00000    -0.00000    -0.00000    -0.00000    -0.00000     0.00000
  17       0.00000     0.00000     0.00000     0.00000    -0.00000    -0.00000
  18      -0.00000     0.00000     0.00000     0.00000    -0.00000    -0.00000
  19       2.75965     0.00000    -0.00000    -0.00000     0.00000    -0.00000
  20       0.00000     2.75965     0.00000     0.00000    -0.00000     0.00000
  21      -0.00000     0.00000     2.30653     0.00000     0.00000     0.00000
  22      -0.00000     0.00000     0.00000     2.75965    -0.00000     0.00000
  23       0.00000    -0.00000     0.00000    -0.00000     2.75965     0.00000
  24      -0.00000     0.00000     0.00000     0.00000     0.00000     2.30653
  25       0.00000     0.00000    -0.00000    -0.00000     0.00000     0.00000
  26       0.00000    -0.00000     0.00000    -0.00000     0.00000     0.00000
  27       0.18169    -0.13483    -0.00000     0.00000    -0.00000     0.00000
  28       0.97144     1.33385     0.00000     0.00000    -0.00000    -0.00000
  29      -1.32142     0.96204     0.00000     0.00000    -0.00000     0.00000
  30      -0.00000     0.00000     0.00000    -0.00000     0.00000     0.00000
  31       0.00000    -0.00000    -0.00000    -0.00000    -0.00000     0.00000
  32      -0.00000    -0.00000    -0.00000    -0.00000    -0.00000     0.00000
  33      -0.00000    -0.00000    -0.00000    -0.00000     0.00000     0.00000
  34      -0.00000    -0.00000     0.00000     0.00000     0.00000     0.00000
  35      -0.00000    -0.00000    -0.00000     0.00000     0.00000    -0.00000
  36       0.00000     0.00000     0.00000     0.00000    -0.00000     0.00000
  37       0.00000    -0.00000     0.00000    -1.64309     0.15205    -0.00000
  38      -0.00000     0.00000    -0.00000    -0.15205    -1.64309     0.00000
  39      -0.04794     0.00398    -0.00000    -0.00000     0.00000     0.00000
  40      -0.30819     0.21378     0.00000    -0.00000     0.00000     0.00000
  41       0.21247     0.31098     0.00000    -0.00000     0.00000     0.00000
  42       0.00000     0.00000     0.00000    -0.00000     0.00000    -0.00000
  43      -0.00000    -0.00000    -0.00000    -0.00000    -0.00000     0.00000
  44       0.00000    -0.00000    -0.00000    -0.00000     0.00000    -0.00000
  45      -0.00000     0.00000    -0.00000     0.13559    -0.35219     0.00000
  46      -0.00000     0.00000    -0.00000    -0.35219    -0.13559    -0.00000
  47      -0.00000    -0.00000     0.00000     0.00000     0.00000    -0.00000
  48       0.00000    -0.00000    -0.00000     0.00000     0.00000    -0.00000
  49      -0.00000    -0.00000    -0.00000     0.00000     0.00000     0.00000
  50      -0.00000    -0.00000    -0.00000    -0.00000     0.00000     0.00000
  51       0.00000     0.00000     0.00000     0.00000    -0.00000    -0.00000
  52       0.00000    -0.00000    -0.00000    -0.00000     0.00000    -0.00000
  53       0.00000     0.00000    -0.00000    -0.00000     0.00000    -0.00000
  54       0.00000     0.00000     0.00000    -0.00000    -0.00000    -0.00000
  55       0.00000    -0.00000     0.00000     0.00000    -0.00000    -0.00000

           25          26          27          28          29          30  
       ----------- ----------- ----------- ----------- ----------- -----------
   1      -0.00000     0.00000     0.00000    -0.00000    -0.00000    -0.00000
   2       0.00000     0.00000     0.00000    -0.00000    -0.00000    -0.01087
   3       0.00000     0.00000    -0.00000    -0.00000     0.00000    -0.01155
   4      -0.00000    -0.00000    -0.00000     0.00000     0.00000    -0.00037
   5      -0.00000     0.00000    -0.00000     0.00000    -0.00000     0.00000
   6      -0.00000     0.00000     0.00000    -0.00000    -0.00000    -0.17364
   7       0.00000    -0.00000    -0.00000     0.00000     0.00000    -0.00191
   8      -0.00000     0.00000    -0.00000    -0.00000    -0.00000    -0.40730
   9       0.00000    -0.00000    -0.00000     0.00000     0.00000     0.00000
  10       0.00000     0.00000    -0.00000    -0.00000    -0.00000    -0.00000
  11       0.99395     0.34786    -0.00000    -0.00000     0.00000    -0.00000
  12      -1.00550     0.50174    -0.00000    -0.00000    -0.00000    -0.00000
  13       0.12390     1.28123     0.00000     0.00000     0.00000     0.00000
  14      -0.00000    -0.00000     0.00000    -0.00000     0.00000    -0.00000
  15      -0.00000    -0.00000    -0.00000     0.00000    -0.00000    -0.00821
  16       0.00000    -0.00000     0.00000     0.00000     0.00000    -0.77232
  17      -0.00000     0.00000    -0.00000    -0.00000     0.00000    -0.98986
  18       0.00000     0.00000    -1.63452    -0.00205    -0.22624    -0.00000
  19       0.00000     0.00000     0.18169     0.97144    -1.32142    -0.00000
  20       0.00000    -0.00000    -0.13483     1.33385     0.96204     0.00000
  21      -0.00000     0.00000    -0.00000     0.00000     0.00000     0.00000
  22      -0.00000    -0.00000     0.00000     0.00000     0.00000    -0.00000
  23       0.00000     0.00000    -0.00000    -0.00000    -0.00000     0.00000
  24       0.00000     0.00000     0.00000    -0.00000     0.00000     0.00000
  25       2.30653    -0.00000     0.00000     0.00000     0.00000    -0.00000
  26      -0.00000     2.30653     0.00000     0.00000     0.00000    -0.00000
  27       0.00000     0.00000     2.43062     0.00000     0.00000     0.00000
  28       0.00000     0.00000     0.00000     2.43062     0.00000    -0.00000
  29       0.00000     0.00000     0.00000     0.00000     2.43062    -0.00000
  30      -0.00000    -0.00000     0.00000    -0.00000    -0.00000     2.22554
  31       0.00000    -0.00000    -0.00000     0.00000     0.00000    -0.00000
  32       0.00000     0.00000    -0.00000     0.00000    -0.00000    -0.00000
  33       0.00000    -0.00000    -0.00000     0.00000     0.00000     0.05279
  34      -0.00000     0.00000     0.00000     0.00000    -0.00000    -0.06220
  35       0.00000    -0.00000    -0.00000     0.00000     0.00000     0.00725
  36      -0.00000    -0.00000     0.00000     0.00000    -0.00000     0.00000
  37       0.00000     0.00000    -0.00000     0.00000    -0.00000    -0.00000
  38      -0.00000    -0.00000     0.00000     0.00000     0.00000     0.00000
  39       0.00000     0.00000     0.93890    -0.06310     0.23663     0.00000
  40       0.00000    -0.00000    -0.23848    -0.02232     0.94028    -0.00000
  41      -0.00000     0.00000     0.05570     0.96800     0.03711    -0.00000
  42       0.00000    -0.00000    -0.00000     0.00000     0.00000     0.03279
  43       0.00000    -0.00000     0.00000    -0.00000     0.00000     0.01173
  44      -0.00000    -0.00000     0.00000     0.00000     0.00000     0.03459
  45      -0.00000    -0.00000     0.00000    -0.00000     0.00000     0.00000
  46      -0.00000    -0.00000     0.00000     0.00000     0.00000    -0.00000
  47       0.00000     0.00000    -0.00000     0.00000    -0.00000    -0.00000
  48      -0.00000    -0.00000     0.00000     0.00000    -0.00000    -0.06421
  49      -0.00000    -0.00000     0.00000     0.00000     0.00000     0.04456
  50       0.00000    -0.00000     0.00000     0.00000     0.00000    -0.05225
  51       0.00000     0.00000     0.00000     0.00000    -0.00000    -0.00000
  52      -0.00000    -0.00000    -0.00000     0.00000    -0.00000    -0.05244
  53      -0.00000     0.00000     0.00000     0.00000    -0.00000     0.05279
  54      -0.00000     0.00000    -0.00000    -0.00000    -0.00000     0.01084
  55       0.00000     0.00000     0.00000    -0.00000     0.00000    -0.00000

           31          32          33          34          35          36  
       ----------- ----------- ----------- ----------- ----------- -----------
   1       0.00000    -0.00000    -0.00000     0.00000     0.00000     0.20625
   2       0.00198    -0.01139     0.02488     0.45683     0.10546     0.00000
   3      -0.00236     0.01061    -0.44383     0.05699    -0.14216     0.00000
   4       0.01556     0.00306     0.15112     0.09216    -0.43486     0.00000
   5      -0.00000     0.00000    -0.00000    -0.00000    -0.00000     0.72225
   6      -0.25275     0.31940    -0.96081    -0.29049     0.05121    -0.00000
   7      -0.34671    -0.27539     0.01296     0.13275     0.99618    -0.00000
   8       0.10937    -0.13487    -0.29468     0.95297    -0.12316     0.00000
   9      -0.00000    -0.00000    -0.00000     0.00000    -0.00000    -0.00000
  10      -0.00000    -0.00000    -0.00000     0.00000     0.00000    -0.61169
  11      -0.00000     0.00000     0.00000     0.00000    -0.00000    -0.00000
  12       0.00000     0.00000     0.00000    -0.00000     0.00000    -0.00000
  13       0.00000     0.00000    -0.00000     0.00000    -0.00000     0.00000
  14       0.00000    -0.00000    -0.00000     0.00000     0.00000     0.10528
  15      -0.81301     0.95672     0.53799     0.44018    -0.08908     0.00000
  16       0.75758     0.63715     0.29833    -0.24637     0.58431     0.00000
  17      -0.58434    -0.50506     0.33570    -0.48648    -0.37652     0.00000
  18       0.00000     0.00000     0.00000    -0.00000     0.00000     0.00000
  19       0.00000    -0.00000    -0.00000    -0.00000    -0.00000     0.00000
  20      -0.00000    -0.00000    -0.00000    -0.00000    -0.00000     0.00000
  21      -0.00000    -0.00000    -0.00000     0.00000    -0.00000     0.00000
  22      -0.00000    -0.00000    -0.00000     0.00000     0.00000     0.00000
  23      -0.00000    -0.00000     0.00000     0.00000     0.00000    -0.00000
  24       0.00000     0.00000     0.00000     0.00000    -0.00000     0.00000
  25       0.00000     0.00000     0.00000    -0.00000     0.00000    -0.00000
  26      -0.00000     0.00000    -0.00000     0.00000    -0.00000    -0.00000
  27      -0.00000    -0.00000    -0.00000     0.00000    -0.00000     0.00000
  28       0.00000     0.00000     0.00000     0.00000     0.00000     0.00000
  29       0.00000    -0.00000     0.00000    -0.00000     0.00000    -0.00000
  30      -0.00000    -0.00000     0.05279    -0.06220     0.00725     0.00000
  31       2.22554     0.00000     0.03794     0.02422    -0.06843     0.00000
  32       0.00000     2.22554    -0.04982    -0.04746    -0.04442    -0.00000
  33       0.03794    -0.04982     2.58253     0.00000    -0.00000     0.00000
  34       0.02422    -0.04746    -0.00000     2.58253     0.00000     0.00000
  35      -0.06843    -0.04442    -0.00000     0.00000     2.58253     0.00000
  36       0.00000    -0.00000     0.00000     0.00000     0.00000     0.57797
  37      -0.00000     0.00000    -0.00000     0.00000    -0.00000    -0.00000
  38      -0.00000     0.00000    -0.00000    -0.00000     0.00000     0.00000
  39      -0.00000    -0.00000    -0.00000     0.00000    -0.00000     0.00000
  40       0.00000    -0.00000     0.00000     0.00000     0.00000    -0.00000
  41       0.00000     0.00000    -0.00000     0.00000    -0.00000    -0.00000
  42       0.03184     0.01789     0.60630    -0.62676    -0.80994     0.00000
  43       0.01358    -0.04569     1.00970     0.52326     0.35092    -0.00000
  44      -0.03480    -0.00146     0.17129    -0.86591     0.79830    -0.00000
  45      -0.00000     0.00000    -0.00000     0.00000     0.00000     0.00000
  46      -0.00000     0.00000    -0.00000     0.00000     0.00000    -0.00000
  47      -0.00000     0.00000     0.00000     0.00000     0.00000     3.07958
  48       0.06760     0.01204     0.06692    -0.23765     0.26424    -0.00000
  49       0.02848     0.07773     0.02065     0.27103     0.23853    -0.00000
  50      -0.05879     0.05149     0.35478     0.02905    -0.06373     0.00000
  51      -0.00000     0.00000     0.00000     0.00000     0.00000     1.46030
  52       0.04581    -0.02838    -0.02830    -0.42183     0.16627     0.00000
  53       0.05163    -0.01420    -0.40223     0.10025     0.18588     0.00000
  54      -0.02983    -0.06817    -0.20928    -0.13563    -0.37973    -0.00000
  55      -0.00000     0.00000     0.00000    -0.00000     0.00000     0.37332

           37          38          39          40          41          42  
       ----------- ----------- ----------- ----------- ----------- -----------
   1       0.00000     0.00000     0.00000    -0.00000    -0.00000    -0.00000
   2      -0.00000     0.00000     0.00000    -0.00000    -0.00000    -0.08047
   3      -0.00000    -0.00000    -0.00000     0.00000    -0.00000    -0.04280
   4      -0.00000    -0.00000     0.00000     0.00000     0.00000     0.08711
   5      -0.00000    -0.00000    -0.00000    -0.00000     0.00000     0.00000
   6       0.00000    -0.00000     0.00000    -0.00000     0.00000    -0.06226
   7       0.00000    -0.00000    -0.00000     0.00000     0.00000    -0.12429
   8      -0.00000     0.00000    -0.00000    -0.00000     0.00000    -0.09527
   9       0.00000     0.00000    -0.00000    -0.00000     0.00000     0.00000
  10      -0.00000     0.00000    -0.00000    -0.00000    -0.00000    -0.00000
  11      -0.00000    -0.00000    -0.00000     0.00000    -0.00000     0.00000
  12      -0.00000     0.00000    -0.00000    -0.00000    -0.00000     0.00000
  13       0.00000     0.00000    -0.00000     0.00000     0.00000     0.00000
  14      -0.00000    -0.00000     0.00000    -0.00000    -0.00000    -0.00000
  15      -0.00000     0.00000    -0.00000    -0.00000     0.00000     0.01071
  16       0.00000     0.00000     0.00000     0.00000     0.00000    -0.01207
  17      -0.00000     0.00000     0.00000     0.00000    -0.00000     0.07115
  18      -0.00000     0.00000    -0.37431     0.04175    -0.02391    -0.00000
  19       0.00000    -0.00000    -0.04794    -0.30819     0.21247     0.00000
  20      -0.00000     0.00000     0.00398     0.21378     0.31098     0.00000
  21       0.00000    -0.00000    -0.00000     0.00000     0.00000     0.00000
  22      -1.64309    -0.15205    -0.00000    -0.00000    -0.00000    -0.00000
  23       0.15205    -1.64309     0.00000     0.00000     0.00000     0.00000
  24      -0.00000     0.00000     0.00000     0.00000     0.00000    -0.00000
  25       0.00000    -0.00000     0.00000     0.00000    -0.00000     0.00000
  26       0.00000    -0.00000     0.00000    -0.00000     0.00000    -0.00000
  27      -0.00000     0.00000     0.93890    -0.23848     0.05570    -0.00000
  28       0.00000     0.00000    -0.06310    -0.02232     0.96800     0.00000
  29      -0.00000     0.00000     0.23663     0.94028     0.03711     0.00000
  30      -0.00000     0.00000     0.00000    -0.00000    -0.00000     0.03279
  31      -0.00000    -0.00000    -0.00000     0.00000     0.00000     0.03184
  32       0.00000     0.00000    -0.00000    -0.00000     0.00000     0.01789
  33      -0.00000    -0.00000    -0.00000     0.00000    -0.00000     0.60630
  34       0.00000    -0.00000     0.00000     0.00000     0.00000    -0.62676
  35      -0.00000     0.00000    -0.00000     0.00000    -0.00000    -0.80994
  36      -0.00000     0.00000     0.00000    -0.00000    -0.00000     0.00000
  37       2.43062     0.00000     0.00000     0.00000     0.00000    -0.00000
  38       0.00000     2.43062    -0.00000    -0.00000    -0.00000    -0.00000
  39       0.00000    -0.00000     1.03841    -0.00000    -0.00000    -0.00000
  40       0.00000    -0.00000    -0.00000     1.03841     0.00000    -0.00000
  41       0.00000    -0.00000    -0.00000     0.00000     1.03841     0.00000
  42      -0.00000    -0.00000    -0.00000    -0.00000     0.00000     1.21904
  43       0.00000     0.00000    -0.00000     0.00000    -0.00000     0.00000
  44       0.00000    -0.00000    -0.00000     0.00000    -0.00000     0.00000
  45      -0.43056     0.86955    -0.00000    -0.00000    -0.00000     0.00000
  46       0.86955     0.43056    -0.00000    -0.00000    -0.00000    -0.00000
  47       0.00000     0.00000    -0.00000    -0.00000     0.00000     0.00000
  48      -0.00000    -0.00000     0.00000    -0.00000     0.00000     0.00737
  49      -0.00000    -0.00000    -0.00000    -0.00000    -0.00000     0.10551
  50       0.00000     0.00000    -0.00000    -0.00000    -0.00000    -0.07480
  51       0.00000     0.00000    -0.00000    -0.00000    -0.00000     0.00000
  52      -0.00000     0.00000    -0.00000     0.00000    -0.00000     0.10121
  53      -0.00000     0.00000    -0.00000    -0.00000    -0.00000    -0.41112
  54       0.00000     0.00000     0.00000    -0.00000    -0.00000     0.23887
  55       0.00000     0.00000    -0.00000     0.00000    -0.00000     0.00000

           43          44          45          46          47          48  
       ----------- ----------- ----------- ----------- ----------- -----------
   1      -0.00000    -0.00000     0.00000     0.00000    -0.00130     0.00000
   2       0.06796    -0.06930     0.00000     0.00000     0.00000    -0.08745
   3      -0.10564    -0.05390    -0.00000    -0.00000    -0.00000    -0.08941
   4       0.01088    -0.09050    -0.00000    -0.00000     0.00000    -0.14019
   5      -0.00000     0.00000    -0.00000    -0.00000     0.42418    -0.00000
   6      -0.15556     0.01801    -0.00000     0.00000     0.00000     0.01187
   7       0.06088     0.09616    -0.00000     0.00000    -0.00000     0.15110
   8       0.02224    -0.13722     0.00000    -0.00000    -0.00000    -0.18111
   9      -0.00000    -0.00000     0.00000     0.00000     0.00000    -0.00000
  10      -0.00000    -0.00000     0.00000     0.00000     0.17264     0.00000
  11       0.00000     0.00000    -0.00000    -0.00000     0.00000    -0.00000
  12      -0.00000     0.00000     0.00000     0.00000     0.00000     0.00000
  13      -0.00000    -0.00000     0.00000     0.00000     0.00000    -0.00000
  14       0.00000     0.00000    -0.00000     0.00000    -1.61642    -0.00000
  15       0.06493    -0.03150     0.00000    -0.00000     0.00000    -0.07028
  16       0.03301     0.06393     0.00000     0.00000     0.00000     0.17765
  17      -0.00418     0.01559    -0.00000    -0.00000     0.00000     0.02943
  18       0.00000     0.00000     0.00000     0.00000     0.00000     0.00000
  19      -0.00000     0.00000    -0.00000    -0.00000    -0.00000     0.00000
  20      -0.00000    -0.00000     0.00000     0.00000    -0.00000    -0.00000
  21      -0.00000    -0.00000    -0.00000    -0.00000     0.00000    -0.00000
  22      -0.00000    -0.00000     0.13559    -0.35219     0.00000     0.00000
  23      -0.00000     0.00000    -0.35219    -0.13559     0.00000     0.00000
  24       0.00000    -0.00000     0.00000    -0.00000    -0.00000    -0.00000
  25       0.00000    -0.00000    -0.00000    -0.00000     0.00000    -0.00000
  26      -0.00000    -0.00000    -0.00000    -0.00000     0.00000    -0.00000
  27       0.00000     0.00000     0.00000     0.00000    -0.00000     0.00000
  28      -0.00000     0.00000    -0.00000     0.00000     0.00000     0.00000
  29       0.00000     0.00000     0.00000     0.00000    -0.00000    -0.00000
  30       0.01173     0.03459     0.00000    -0.00000    -0.00000    -0.06421
  31       0.01358    -0.03480    -0.00000    -0.00000    -0.00000     0.06760
  32      -0.04569    -0.00146     0.00000     0.00000     0.00000     0.01204
  33       1.00970     0.17129    -0.00000    -0.00000     0.00000     0.06692
  34       0.52326    -0.86591     0.00000     0.00000     0.00000    -0.23765
  35       0.35092     0.79830     0.00000     0.00000     0.00000     0.26424
  36      -0.00000    -0.00000     0.00000    -0.00000     3.07958    -0.00000
  37       0.00000     0.00000    -0.43056     0.86955     0.00000    -0.00000
  38       0.00000    -0.00000     0.86955     0.43056     0.00000    -0.00000
  39      -0.00000    -0.00000    -0.00000    -0.00000    -0.00000     0.00000
  40       0.00000     0.00000    -0.00000    -0.00000    -0.00000    -0.00000
  41      -0.00000    -0.00000    -0.00000    -0.00000     0.00000     0.00000
  42       0.00000     0.00000     0.00000    -0.00000     0.00000     0.00737
  43       1.21904     0.00000     0.00000     0.00000     0.00000    -0.01082
  44       0.00000     1.21904    -0.00000    -0.00000     0.00000    -0.12888
  45       0.00000    -0.00000     1.03841     0.00000     0.00000     0.00000
  46       0.00000    -0.00000     0.00000     1.03841     0.00000    -0.00000
  47       0.00000     0.00000     0.00000     0.00000   -12.04940     0.00000
  48      -0.01082    -0.12888     0.00000    -0.00000     0.00000     0.33374
  49      -0.07416     0.01226    -0.00000    -0.00000     0.00000     0.00000
  50      -0.10567     0.00459    -0.00000     0.00000    -0.00000     0.00000
  51       0.00000     0.00000    -0.00000     0.00000    -4.16681     0.00000
  52      -0.17169     0.44340     0.00000     0.00000    -0.00000    -0.21798
  53      -0.25934    -0.00658     0.00000    -0.00000     0.00000     0.00249
  54      -0.37361    -0.19919     0.00000     0.00000     0.00000     0.12579
  55       0.00000     0.00000    -0.00000     0.00000    -1.58368     0.00000

           49          50          51          52          53          54  
       ----------- ----------- ----------- ----------- ----------- -----------
   1      -0.00000     0.00000     0.28198    -0.00000    -0.00000    -0.00000
   2       0.16540     0.01701     0.00000    -0.09731     0.03065    -0.05932
   3      -0.03057    -0.16237     0.00000    -0.01943     0.08731     0.07698
   4      -0.08368     0.09295     0.00000    -0.06388    -0.07324     0.06695
   5       0.00000    -0.00000     0.55918     0.00000     0.00000    -0.00000
   6      -0.05611    -0.22909     0.00000     0.02404     0.05574     0.03358
   7       0.17794    -0.03576     0.00000     0.01660     0.02936    -0.06062
   8       0.14477    -0.04484    -0.00000    -0.06292     0.02904    -0.00316
   9      -0.00000    -0.00000    -0.00000    -0.00000     0.00000    -0.00000
  10       0.00000    -0.00000    -0.20530    -0.00000     0.00000    -0.00000
  11       0.00000     0.00000     0.00000    -0.00000    -0.00000     0.00000
  12       0.00000     0.00000     0.00000    -0.00000    -0.00000    -0.00000
  13       0.00000    -0.00000     0.00000    -0.00000     0.00000    -0.00000
  14      -0.00000    -0.00000    -0.03262    -0.00000    -0.00000     0.00000
  15       0.08326     0.15966     0.00000    -0.05686    -0.04977    -0.03650
  16       0.06007     0.04687    -0.00000     0.05077    -0.00951    -0.06613
  17      -0.16378     0.09836     0.00000     0.03508    -0.06689     0.03656
  18       0.00000     0.00000     0.00000     0.00000    -0.00000    -0.00000
  19      -0.00000    -0.00000     0.00000     0.00000     0.00000     0.00000
  20      -0.00000    -0.00000     0.00000    -0.00000     0.00000     0.00000
  21      -0.00000    -0.00000     0.00000    -0.00000    -0.00000     0.00000
  22       0.00000    -0.00000     0.00000    -0.00000    -0.00000    -0.00000
  23       0.00000     0.00000    -0.00000     0.00000     0.00000    -0.00000
  24       0.00000     0.00000    -0.00000    -0.00000    -0.00000    -0.00000
  25      -0.00000     0.00000     0.00000    -0.00000    -0.00000     0.00000
  26      -0.00000    -0.00000     0.00000    -0.00000     0.00000     0.00000
  27       0.00000     0.00000     0.00000    -0.00000     0.00000    -0.00000
  28       0.00000     0.00000     0.00000     0.00000     0.00000    -0.00000
  29       0.00000     0.00000    -0.00000    -0.00000    -0.00000    -0.00000
  30       0.04456    -0.05225    -0.00000    -0.05244     0.05279     0.01084
  31       0.02848    -0.05879    -0.00000     0.04581     0.05163    -0.02983
  32       0.07773     0.05149     0.00000    -0.02838    -0.01420    -0.06817
  33       0.02065     0.35478     0.00000    -0.02830    -0.40223    -0.20928
  34       0.27103     0.02905     0.00000    -0.42183     0.10025    -0.13563
  35       0.23853    -0.06373     0.00000     0.16627     0.18588    -0.37973
  36      -0.00000     0.00000     1.46030     0.00000     0.00000    -0.00000
  37      -0.00000     0.00000     0.00000    -0.00000    -0.00000     0.00000
  38      -0.00000     0.00000     0.00000     0.00000     0.00000     0.00000
  39      -0.00000    -0.00000    -0.00000    -0.00000    -0.00000     0.00000
  40      -0.00000    -0.00000    -0.00000     0.00000    -0.00000    -0.00000
  41      -0.00000    -0.00000    -0.00000    -0.00000    -0.00000    -0.00000
  42       0.10551    -0.07480     0.00000     0.10121    -0.41112     0.23887
  43      -0.07416    -0.10567     0.00000    -0.17169    -0.25934    -0.37361
  44       0.01226     0.00459     0.00000     0.44340    -0.00658    -0.19919
  45      -0.00000    -0.00000    -0.00000     0.00000     0.00000     0.00000
[...]
  11      -0.00000    -0.00000     0.00000    11.69070     8.10643     4.35213
  12       0.00000     0.00000     0.00000    -2.70563     3.53140     0.69015
  13      -0.00000    -0.00000    -0.00000    -0.65702    -1.33383     4.24932
  14      -0.00000    -0.00000     0.00000     3.53772     2.45308     1.31700
  15      -0.00000    -0.00000    -0.00000     0.26951    -0.35176    -0.06875
  16      -0.00000     0.00000     0.00000     0.06544     0.13286    -0.42327
  17       0.00000     0.00000    -0.00000    -0.35239    -0.24435    -0.13119
  18      -0.00000     0.00000    -1.65464     0.00000     0.00000     0.00000
  19      -0.84102     0.36952     0.00000     0.00000    -0.00000     0.00000
  20       1.87477    -0.29824     0.00000    -0.00000    -0.00000    -0.00000
  21       0.00000    -0.00000    -1.65464     0.00000     0.00000     0.00000
  22       0.42560     2.04395    -0.00000     0.00000    -0.00000     0.00000
  23      -0.00000    -0.00000    -1.65464     0.00000     0.00000     0.00000
  24       0.00000    -0.00000    -4.45206    -0.00000     0.00000    -0.00000
  25       0.56985    -0.25038    -0.00000    -0.00000     0.00000    -0.00000
  26      -1.27029     0.20208    -0.00000     0.00000     0.00000     0.00000
  27      -0.00000     0.00000    -4.45206    -0.00000     0.00000    -0.00000
  28      -0.28838    -1.38492     0.00000    -0.00000     0.00000    -0.00000
  29       0.00000     0.00000    -4.45206    -0.00000     0.00000    -0.00000
  30      -0.00000     0.00000    -0.75217    -0.00000     0.00000    -0.00000
  31      -0.20625     0.09062     0.00000     0.00000    -0.00000    -0.00000
  32       0.45976    -0.07314     0.00000    -0.00000     0.00000    -0.00000
  33       0.00000    -0.00000    -0.75217    -0.00000     0.00000    -0.00000
  34       0.10437     0.50125    -0.00000     0.00000    -0.00000     0.00000
  35      -0.00000    -0.00000    -0.75217    -0.00000     0.00000    -0.00000
  36      -0.00000    -0.00000    -0.00000     4.68670    -6.11712    -1.19548
  37      -0.00000     0.00000     0.00000     1.13809     2.31047    -7.36070
  38       0.00000    -0.00000    -0.00000    -6.12805    -4.24924    -2.28131
  39       0.00000    -0.00000    -0.00000     4.68670    -6.11712    -1.19548
  40      -0.00000     0.00000    -0.00000     0.00000    -0.00000    -0.00000
  41       0.00000     0.00000    -0.00000     4.68670    -6.11712    -1.19548
  42      -0.00000    -0.00000     0.00000     1.13809     2.31047    -7.36070
  43       0.00000     0.00000    -0.00000    -6.12805    -4.24924    -2.28131
  44       0.00000    -0.00000     0.00000     1.13809     2.31047    -7.36070
  45      -0.00000    -0.00000    -0.00000    -6.12805    -4.24924    -2.28131
  46       0.00000     0.00000    -0.00000     2.73637    -3.57153    -0.69799
  47       0.00000    -0.00000     0.00000     0.66448     1.34899    -4.29761
  48      -0.00000     0.00000    -0.00000    -3.57791    -2.48096    -1.33196
  49      -0.00000     0.00000    -0.00000     2.73637    -3.57153    -0.69799
  50       0.00000    -0.00000     0.00000    -0.00000     0.00000     0.00000
  51      -0.00000    -0.00000    -0.00000     2.73637    -3.57153    -0.69799
  52       0.00000     0.00000     0.00000     0.66448     1.34899    -4.29761
  53      -0.00000    -0.00000    -0.00000    -3.57791    -2.48096    -1.33196
  54      -0.00000     0.00000     0.00000     0.66448     1.34899    -4.29761
  55       0.00000     0.00000    -0.00000    -3.57791    -2.48096    -1.33196

           55  
       -----------
   1       3.83774
   2      10.25297
   3      -1.37613
   4       9.14291
   5       0.88020
   6       0.00000
   7      -0.00000
   8       0.00000
   9      -0.00000
  10       0.00000
  11      -0.00000
  12      -0.00000
  13       0.00000
  14      -0.00000
  15       0.00000
  16      -0.00000
  17      -0.00000
  18      -3.80329
  19       0.00000
  20       0.00000
  21      -3.80329
  22      -0.00000
  23      -3.80329
  24      -4.66160
  25      -0.00000
  26      -0.00000
  27      -4.66160
  28       0.00000
  29      -4.66160
  30      -1.27541
  31       0.00000
  32       0.00000
  33      -1.27541
  34      -0.00000
  35      -1.27541
  36       0.00000
  37      -0.00000
  38       0.00000
  39       0.00000
  40      -0.00000
  41       0.00000
  42      -0.00000
  43       0.00000
  44      -0.00000
  45       0.00000
  46       0.00000
  47      -0.00000
  48       0.00000
  49       0.00000
  50       0.00000
  51       0.00000
  52      -0.00000
  53       0.00000
  54      -0.00000
  55       0.00000
  int_init: cando_txs set to always be  F
                                NWChem TDDFT Module
                                -------------------


            General Information
            -------------------
           No. of orbitals :     110
            Alpha orbitals :      55
             Beta orbitals :      55
        Alpha frozen cores :       0
         Beta frozen cores :       0
     Alpha frozen virtuals :       0
      Beta frozen virtuals :       0
         Spin multiplicity :       4
    Number of AO functions :      55
        Use of symmetry is : off
      Symmetry adaption is : off
         Schwarz screening :  0.10D-07

              XC Information
              --------------
              Hartree-Fock (Exact) Exchange   1.00          
              LC-wPBE(h)Exchange Functional   1.00          
     Perdew 1991 LDA Correlation Functional   1.00 local    
    PerdewBurkeErnz. Correlation Functional   1.00 non-local
           Alpha           :  0.00
           Beta            :  1.00
           Gamma           :  0.41

             TDDFT Information
             -----------------
          Calculation type : TDDFT             
         Wavefunction type : Unrestricted
          No. of electrons :       7
           Alpha electrons :       5
            Beta electrons :       2
              No. of roots :       5
          Max subspacesize :    5000
            Max iterations :     100
               Target root :       1
           Target symmetry : none
      Symmetry restriction : off
                 Algorithm : Optimal
        Davidson threshold :  0.10D-03

            Memory Information
            ------------------
          Available GA space size is       52428793950 doubles
          Available MA space size is        4194412372 doubles
          Length of a trial vector is          250     106
          Algorithm : Incore multiple tensor contraction
          Estimated peak GA usage is           7631760 doubles
          Estimated peak MA usage is             18000 doubles

    5 smallest eigenvalue differences (eV) 
--------------------------------------------------------
  No. Spin  Occ  Vir  Irrep   E(Occ)    E(Vir)   E(Diff)
--------------------------------------------------------
    1    1    5    6 a        -0.489     0.087    15.674
    2    1    4    6 a        -0.489     0.087    15.674
    3    1    3    6 a        -0.489     0.087    15.674
    4    1    5    7 a        -0.489     0.120    16.556
    5    1    5    8 a        -0.489     0.120    16.556
--------------------------------------------------------

  Entering Davidson iterations
  Unrestricted

  Iter   NTrls   NConv    DeltaV     DeltaE      Time   
  ----  ------  ------  ---------  ---------  --------- 
    1      5       0     0.12E+00   0.10+100        1.3
    2     15       0     0.43E-01   0.97E-02        2.2
    3     25       0     0.49E-01   0.50E-02        2.2
    4     35       0     0.80E-01   0.11E-01        2.2
    5     45       0     0.10E-01   0.16E-02        2.2
    6     55       0     0.12E-02   0.17E-04        2.2
    7     65       5     0.24E-04   0.19E-06        2.2
  ----  ------  ------  ---------  ---------  --------- 
  Convergence criterion met

  Ground state a         -54.560629366561 a.u.
  <S2> =   3.7515

  ----------------------------------------------------------------------------
  Root   1         a              0.359630897 a.u.                9.7861 eV 
  <S2> =   3.7513
  ----------------------------------------------------------------------------
     Transition Moments    X  0.21324   Y  0.19356   Z -0.51121
     Transition Moments   XX  0.00000  XY -0.00000  XZ  0.00000
     Transition Moments   YY  0.00000  YZ  0.00000  ZZ -0.00000
     Dipole Oscillator Strength                    0.0825401070
     Electric Quadrupole                           0.0000000000
     Magnetic Dipole                               0.0000000000
     Total Oscillator Strength                     0.0825401070

     Occ.    3 alpha a   ---  Virt.    6 alpha a   -0.27707 X
     Occ.    3 alpha a   ---  Virt.   10 alpha a    0.05046 X
     Occ.    4 alpha a   ---  Virt.    6 alpha a    0.60799 X
     Occ.    4 alpha a   ---  Virt.   10 alpha a   -0.11072 X
     Occ.    5 alpha a   ---  Virt.    6 alpha a   -0.67017 X
     Occ.    5 alpha a   ---  Virt.   10 alpha a    0.12204 X
     Occ.    2 beta  a   ---  Virt.    3 beta  a   -0.16597 X
     Occ.    2 beta  a   ---  Virt.    4 beta  a    0.17804 X
     Occ.    2 beta  a   ---  Virt.    5 beta  a   -0.07407 X
     Occ.    2 beta  a   ---  Virt.    8 beta  a   -0.07042 X
  ----------------------------------------------------------------------------
  Root   2         a              0.359630897 a.u.                9.7861 eV 
  <S2> =   3.7513
  ----------------------------------------------------------------------------
     Transition Moments    X -0.17957   Y  0.54308   Z  0.13072
     Transition Moments   XX -0.00000  XY  0.00000  XZ -0.00000
     Transition Moments   YY  0.00000  YZ -0.00000  ZZ -0.00000
     Dipole Oscillator Strength                    0.0825401070
     Electric Quadrupole                           0.0000000000
     Magnetic Dipole                               0.0000000000
     Total Oscillator Strength                     0.0825401070

     Occ.    3 alpha a   ---  Virt.    6 alpha a    0.83902 X
     Occ.    3 alpha a   ---  Virt.   10 alpha a   -0.15279 X
     Occ.    4 alpha a   ---  Virt.    6 alpha a   -0.08984 X
     Occ.    5 alpha a   ---  Virt.    6 alpha a   -0.42839 X
     Occ.    5 alpha a   ---  Virt.   10 alpha a    0.07801 X
     Occ.    2 beta  a   ---  Virt.    3 beta  a   -0.18569 X
     Occ.    2 beta  a   ---  Virt.    4 beta  a   -0.12122 X
     Occ.    2 beta  a   ---  Virt.    5 beta  a    0.12472 X
     Occ.    2 beta  a   ---  Virt.    9 beta  a   -0.07658 X
  ----------------------------------------------------------------------------
  Root   3         a              0.359630897 a.u.                9.7861 eV 
  <S2> =   3.7513
  ----------------------------------------------------------------------------
     Transition Moments    X -0.51629   Y -0.10895   Z -0.25661
     Transition Moments   XX -0.00000  XY  0.00000  XZ -0.00000
     Transition Moments   YY -0.00000  YZ -0.00000  ZZ -0.00000
     Dipole Oscillator Strength                    0.0825404879
     Electric Quadrupole                           0.0000000000
     Magnetic Dipole                               0.0000000000
     Total Oscillator Strength                     0.0825404879

     Occ.    3 alpha a   ---  Virt.    6 alpha a    0.33885 X
     Occ.    3 alpha a   ---  Virt.   10 alpha a   -0.06171 X
     Occ.    4 alpha a   ---  Virt.    6 alpha a    0.71960 X
     Occ.    4 alpha a   ---  Virt.   10 alpha a   -0.13104 X
     Occ.    5 alpha a   ---  Virt.    6 alpha a    0.51274 X
     Occ.    5 alpha a   ---  Virt.   10 alpha a   -0.09337 X
     Occ.    2 beta  a   ---  Virt.    3 beta  a    0.05198 X
     Occ.    2 beta  a   ---  Virt.    4 beta  a    0.13542 X
     Occ.    2 beta  a   ---  Virt.    5 beta  a    0.20902 X
     Occ.    2 beta  a   ---  Virt.    7 beta  a    0.06594 X
  ----------------------------------------------------------------------------
  Root   4         a              0.400190239 a.u.               10.8897 eV 
  <S2> =   3.7564
  ----------------------------------------------------------------------------
     Transition Moments    X  0.04394   Y -0.35663   Z  0.06306
     Transition Moments   XX -0.00000  XY  0.00000  XZ -0.00000
     Transition Moments   YY -0.00000  YZ -0.00000  ZZ -0.00000
     Dipole Oscillator Strength                    0.0355077588
     Electric Quadrupole                           0.0000000000
     Magnetic Dipole                               0.0000000000
     Total Oscillator Strength                     0.0355077588

     Occ.    3 alpha a   ---  Virt.    6 alpha a    0.18552 X
     Occ.    3 alpha a   ---  Virt.   11 alpha a    0.06708 X
     Occ.    3 alpha a   ---  Virt.   15 alpha a   -0.06001 X
     Occ.    4 alpha a   ---  Virt.    6 alpha a    0.05225 X
     Occ.    4 alpha a   ---  Virt.   13 alpha a   -0.08784 X
     Occ.    5 alpha a   ---  Virt.    6 alpha a   -0.19590 X
     Occ.    5 alpha a   ---  Virt.   11 alpha a   -0.07071 X
     Occ.    2 beta  a   ---  Virt.    3 beta  a    0.85729 X
     Occ.    2 beta  a   ---  Virt.    4 beta  a    0.11854 X
     Occ.    2 beta  a   ---  Virt.    5 beta  a   -0.29007 X
     Occ.    2 beta  a   ---  Virt.    7 beta  a   -0.11561 X
     Occ.    2 beta  a   ---  Virt.    8 beta  a    0.06412 X
     Occ.    2 beta  a   ---  Virt.    9 beta  a    0.19430 X
     Occ.    2 beta  a   ---  Virt.   17 beta  a   -0.05414 X
  ----------------------------------------------------------------------------
  Root   5         a              0.400190239 a.u.               10.8897 eV 
  <S2> =   3.7564
  ----------------------------------------------------------------------------
     Transition Moments    X -0.16782   Y  0.03624   Z  0.32189
     Transition Moments   XX  0.00000  XY -0.00000  XZ  0.00000
     Transition Moments   YY  0.00000  YZ  0.00000  ZZ  0.00000
     Dipole Oscillator Strength                    0.0355077588
     Electric Quadrupole                           0.0000000000
     Magnetic Dipole                               0.0000000000
     Total Oscillator Strength                     0.0355077588

     Occ.    3 alpha a   ---  Virt.    6 alpha a   -0.17731 X
     Occ.    3 alpha a   ---  Virt.   13 alpha a   -0.06534 X
     Occ.    3 alpha a   ---  Virt.   15 alpha a    0.06945 X
     Occ.    4 alpha a   ---  Virt.    6 alpha a    0.17057 X
     Occ.    4 alpha a   ---  Virt.   11 alpha a   -0.06386 X
     Occ.    4 alpha a   ---  Virt.   12 alpha a   -0.07404 X
     Occ.    5 alpha a   ---  Virt.    6 alpha a   -0.12243 X
     Occ.    5 alpha a   ---  Virt.   14 alpha a    0.08806 X
     Occ.    2 beta  a   ---  Virt.    3 beta  a    0.25186 X
     Occ.    2 beta  a   ---  Virt.    4 beta  a   -0.76337 X
     Occ.    2 beta  a   ---  Virt.    5 beta  a    0.43242 X
     Occ.    2 beta  a   ---  Virt.    7 beta  a   -0.07314 X
     Occ.    2 beta  a   ---  Virt.    8 beta  a    0.19548 X
     Occ.    2 beta  a   ---  Virt.    9 beta  a   -0.10803 X

              Target root =      1
          Target symmetry = none
      Ground state energy =    -54.560629366561
        Excitation energy =      0.359630897016
     Excited state energy =    -54.200998469545

  stored tddft:energy   -54.200998469544963     

 Task  times  cpu:       13.7s     wall:       16.4s


                                NWChem Input Module
                                -------------------


 Summary of allocated global arrays
-----------------------------------
  No active global arrays


MA_summarize_allocated_blocks: starting scan ...
heap block 'gridpts', handle 75, address 0x12638ba8:
	type of elements:		double precision
	number of elements:		1048466375
	address of client space:	0x12638c00
	index for client space:		10407127
	total number of bytes:		8387731096
MA_summarize_allocated_blocks: scan completed: 1 heap block, 0 stack blocks
MA usage statistics:

	allocation statistics:
					      heap	     stack
					      ----	     -----
	current number of blocks	         1	         0
	maximum number of blocks	        18	        54
	current total bytes		8387731096	         0
	maximum total bytes		8388032168	  22513208
	maximum total K-bytes		   8388033	     22514
	maximum total M-bytes		      8389	        23


                                     CITATION
                                     --------
                Please cite the following reference when publishing
                           results obtained with NWChem:

          E. Apra, E. J. Bylaska, W. A. de Jong, N. Govind, K. Kowalski,
       T. P. Straatsma, M. Valiev, H. J. J. van Dam, Y. Alexeev, J. Anchell,
       V. Anisimov, F. W. Aquino, R. Atta-Fynn, J. Autschbach, N. P. Bauman,
     J. C. Becca, D. E. Bernholdt, K. Bhaskaran-Nair, S. Bogatko, P. Borowski,
         J. Boschen, J. Brabec, A. Bruner, E. Cauet, Y. Chen, G. N. Chuev,
      C. J. Cramer, J. Daily, M. J. O. Deegan, T. H. Dunning Jr., M. Dupuis,
   K. G. Dyall, G. I. Fann, S. A. Fischer, A. Fonari, H. Fruchtl, L. Gagliardi,
      J. Garza, N. Gawande, S. Ghosh, K. Glaesemann, A. W. Gotz, J. Hammond,
       V. Helms, E. D. Hermes, K. Hirao, S. Hirata, M. Jacquelin, L. Jensen,
   B. G. Johnson, H. Jonsson, R. A. Kendall, M. Klemm, R. Kobayashi, V. Konkov,
      S. Krishnamoorthy, M. Krishnan, Z. Lin, R. D. Lins, R. J. Littlefield,
      A. J. Logsdail, K. Lopata, W. Ma, A. V. Marenich, J. Martin del Campo,
   D. Mejia-Rodriguez, J. E. Moore, J. M. Mullin, T. Nakajima, D. R. Nascimento,
    J. A. Nichols, P. J. Nichols, J. Nieplocha, A. Otero-de-la-Roza, B. Palmer,
    A. Panyala, T. Pirojsirikul, B. Peng, R. Peverati, J. Pittner, L. Pollack,
   R. M. Richard, P. Sadayappan, G. C. Schatz, W. A. Shelton, D. W. Silverstein,
   D. M. A. Smith, T. A. Soares, D. Song, M. Swart, H. L. Taylor, G. S. Thomas,
            V. Tipparaju, D. G. Truhlar, K. Tsemekhman, T. Van Voorhis,
      A. Vazquez-Mayagoitia, P. Verma, O. Villa, A. Vishnu, K. D. Vogiatzis,
        D. Wang, J. H. Weare, M. J. Williamson, T. L. Windus, K. Wolinski,
        A. T. Wong, Q. Wu, C. Yang, Q. Yu, M. Zacharias, Z. Zhang, Y. Zhao,
                                and R. J. Harrison
                        "NWChem: Past, present, and future
                         J. Chem. Phys. 152, 184102 (2020)
                               doi:10.1063/5.0004997

                                      AUTHORS
                                      -------
  E. Apra, E. J. Bylaska, N. Govind, K. Kowalski, M. Valiev, D. Mejia-Rodriguez,
       A. Kunitsa, N. P. Bauman, A. Panyala, W. A. de Jong, T. P. Straatsma,
   H. J. J. van Dam, D. Wang, T. L. Windus, J. Hammond, J. Autschbach, A. Woods,
    K. Bhaskaran-Nair, J. Brabec, K. Lopata, S. A. Fischer, S. Krishnamoorthy,
     M. Jacquelin, W. Ma, M. Klemm, O. Villa, Y. Chen, V. Anisimov, F. Aquino,
     S. Hirata, M. T. Hackler, E. Hermes, L. Jensen, J. E. Moore, J. C. Becca,
      V. Konjkov, T. Risthaus, M. Malagoli, A. Marenich, A. Otero-de-la-Roza,
        J. Mullin, P. Nichols, R. Peverati, J. Pittner, Y. Zhao, P.-D. Fan,
        A. Fonari, M. J. Williamson, R. J. Harrison, J. R. Rehr, M. Dupuis,
     D. Silverstein, D. M. A. Smith, J. Nieplocha, V. Tipparaju, M. Krishnan,
     B. E. Van Kuiken, A. Vazquez-Mayagoitia, M. Swart, Q. Wu, T. Van Voorhis,
     A. A. Auer, M. Nooijen, L. D. Crosby, E. Brown, G. Cisneros, G. I. Fann,
   H. Fruchtl, J. Garza, K. Hirao, R. A. Kendall, J. A. Nichols, K. Tsemekhman,
    K. Wolinski, J. Anchell, D. E. Bernholdt, P. Borowski, T. Clark, D. Clerc,
   H. Dachsel, M. J. O. Deegan, K. Dyall, D. Elwood, E. Glendening, M. Gutowski,
   A. C. Hess, J. Jaffe, B. G. Johnson, J. Ju, R. Kobayashi, R. Kutteh, Z. Lin,
   R. Littlefield, X. Long, B. Meng, T. Nakajima, S. Niu, L. Pollack, M. Rosing,
   K. Glaesemann, G. Sandrone, M. Stave, H. Taylor, G. Thomas, J. H. van Lenthe,
                               A. T. Wong, Z. Zhang.

 Total times  cpu:       13.7s     wall:       16.6s
