 argument  1 = /home/aditisingh4812/nw_chem/nwchem-run/nwchem-run/tddft/open/open_atom/geom-MOL/na.nw
                                         
                                         


             Northwest Computational Chemistry Package (NWChem) 7.2.3
             --------------------------------------------------------


                    Environmental Molecular Sciences Laboratory
                       Pacific Northwest National Laboratory
                                Richland, WA 99352

                              Copyright (c) 1994-2022
                       Pacific Northwest National Laboratory
                            Battelle Memorial Institute

             NWChem is an open-source computational chemistry package
                        distributed under the terms of the
                      Educational Community License (ECL) 2.0
             A copy of the license is included with this distribution
                              in the LICENSE.TXT file

                                  ACKNOWLEDGMENT
                                  --------------

            This software and its documentation were developed at the
            EMSL at Pacific Northwest National Laboratory, a multiprogram
            national laboratory, operated for the U.S. Department of Energy
            by Battelle under Contract Number DE-AC05-76RL01830. Support
            for this work was provided by the Department of Energy Office
            of Biological and Environmental Research, Office of Basic
            Energy Sciences, and the Office of Advanced Scientific Computing.


           Job information
           ---------------

    hostname        = p17
    program         = /home/aditisingh4812/nw_chem/nwchem-7.2.3-release.revision-d690e065-srconly.2024-08-27/nwchem-7.2.3/bin/LINUX64/nwchem
    date            = Thu May  8 11:53:46 2025

    compiled        = Mon_Apr_07_18:51:54_2025
    source          = /home/aditisingh4812/nw_chem/nwchem-7.2.3-release.revision-d690e065-srconly.2024-08-27/nwchem-7.2.3
    nwchem branch   = 7.2.3
    nwchem revision = d690e065
    ga revision     = 5.8.0
    use scalapack   = F
    input           = /home/aditisingh4812/nw_chem/nwchem-run/nwchem-run/tddft/open/open_atom/geom-MOL/na.nw
    prefix          = na.
    data base       = ./na.db
    status          = startup
    nproc           =        8
    time left       =     -1s



           Memory information
           ------------------

    heap     = 2621439998 doubles =  20000.0 Mbytes
    stack    = 2621439995 doubles =  20000.0 Mbytes
    global   = 6553600000 doubles =  50000.0 Mbytes (distinct from heap & stack)
    total    = ********** doubles =  90000.0 Mbytes
    verify   = yes
    hardfail = no 


           Directory information
           ---------------------

  0 permanent = .
  0 scratch   = .




                                NWChem Input Module
                                -------------------



 Scaling coordinates for geometry "geometry" by  1.889725989
 (inverse scale =  0.529177249)



                             Geometry "geometry" -> ""
                             -------------------------

 Output coordinates in angstroms (scale by  1.889725989 to convert to a.u.)

  No.       Tag          Charge          X              Y              Z
 ---- ---------------- ---------- -------------- -------------- --------------
    1 Na                  11.0000     0.00000000     0.00000000     0.00000000

      Atomic Mass 
      ----------- 

      Na                22.989800


 Effective nuclear repulsion energy (a.u.)       0.0000000000

            Nuclear Dipole moment (a.u.) 
            ----------------------------
        X                 Y               Z
 ---------------- ---------------- ----------------
     0.0000000000     0.0000000000     0.0000000000


            XYZ format geometry
            -------------------
     1
 geometry
 Na                    0.00000000     0.00000000     0.00000000



 Summary of "ao basis" -> "" (cartesian)
 ------------------------------------------------------------------------------
       Tag                 Description            Shells   Functions and Types
 ---------------- ------------------------------  ------  ---------------------
 *                        aug-cc-pVTZ                 on all atoms 


  pbe96 is a nonlocal functional; adding pw91lda local functional. 

                                 NWChem DFT Module
                                 -----------------


                      Basis "ao basis" -> "ao basis" (cartesian)
                      -----
  Na (Sodium)
  -----------
            Exponent  Coefficients 
       -------------- ---------------------------------------------------------
  1 S  4.23000000E+05  0.000018
  1 S  6.33400000E+04  0.000140
  1 S  1.44100000E+04  0.000738
  1 S  4.07700000E+03  0.003112
  1 S  1.32800000E+03  0.011208
  1 S  4.78600000E+02  0.035283
  1 S  1.86200000E+02  0.095990
  1 S  7.69200000E+01  0.213735
  1 S  3.33200000E+01  0.348688
  1 S  1.50000000E+01  0.324566
  1 S  6.86900000E+00  0.112633
  1 S  2.68300000E+00  0.007068
  1 S  1.10900000E+00  0.000598
  1 S  6.01500000E-02 -0.000005

  2 S  4.23000000E+05 -0.000004
  2 S  6.33400000E+04 -0.000034
  2 S  1.44100000E+04 -0.000180
  2 S  4.07700000E+03 -0.000764
  2 S  1.32800000E+03 -0.002752
  2 S  4.78600000E+02 -0.008860
  2 S  1.86200000E+02 -0.024794
  2 S  7.69200000E+01 -0.060600
  2 S  3.33200000E+01 -0.116446
  2 S  1.50000000E+01 -0.162437
  2 S  6.86900000E+00 -0.043889
  2 S  2.68300000E+00  0.337917
  2 S  1.10900000E+00  0.561347
  2 S  6.01500000E-02  0.004068

  3 S  4.23000000E+05  0.000001
  3 S  6.33400000E+04  0.000005
  3 S  1.44100000E+04  0.000027
  3 S  4.07700000E+03  0.000115
  3 S  1.32800000E+03  0.000415
  3 S  4.78600000E+02  0.001330
  3 S  1.86200000E+02  0.003756
  3 S  7.69200000E+01  0.009140
  3 S  3.33200000E+01  0.017986
  3 S  1.50000000E+01  0.025148
  3 S  6.86900000E+00  0.007635
  3 S  2.68300000E+00 -0.061459
  3 S  1.10900000E+00 -0.115721
  3 S  6.01500000E-02  0.626406

  4 S  4.54000000E-01  1.000000

  5 S  2.38200000E-02  1.000000

  6 S  6.65000000E-03  1.000000

  7 P  2.43300000E+02  0.002244
  7 P  5.73900000E+01  0.017400
  7 P  1.81000000E+01  0.077413
  7 P  6.57500000E+00  0.219102
  7 P  2.52100000E+00  0.378522
  7 P  9.60700000E-01  0.394902
  7 P  3.51200000E-01  0.160424
  7 P  9.82700000E-02  0.002333

  8 P  2.43300000E+02 -0.000222
  8 P  5.73900000E+01 -0.001743
  8 P  1.81000000E+01 -0.007755
  8 P  6.57500000E+00 -0.022519
  8 P  2.52100000E+00 -0.038433
  8 P  9.60700000E-01 -0.045018
  8 P  3.51200000E-01 -0.019213
  8 P  9.82700000E-02  0.182697

  9 P  3.73400000E-02  1.000000

 10 P  1.50000000E-02  1.000000

 11 P  7.00000000E-03  1.000000

 12 D  1.36700000E-01  1.000000

 13 D  6.36000000E-02  1.000000

 14 D  2.23000000E-02  1.000000

 15 F  1.39700000E-01  1.000000

 16 F  7.14000000E-02  1.000000



 Summary of "ao basis" -> "ao basis" (cartesian)
 ------------------------------------------------------------------------------
       Tag                 Description            Shells   Functions and Types
 ---------------- ------------------------------  ------  ---------------------
 Na                       aug-cc-pVTZ               16       59   6s5p3d2f




 Summary of "ao basis" -> "ao basis" (cartesian)
 ------------------------------------------------------------------------------
       Tag                 Description            Shells   Functions and Types
 ---------------- ------------------------------  ------  ---------------------
 Na                       aug-cc-pVTZ               16       59   6s5p3d2f




                         Geometry "geometry" -> "geometry"
                         ---------------------------------

 Output coordinates in angstroms (scale by  1.889725989 to convert to a.u.)

  No.       Tag          Charge          X              Y              Z
 ---- ---------------- ---------- -------------- -------------- --------------
    1 Na                  11.0000     0.00000000     0.00000000     0.00000000

      Atomic Mass 
      ----------- 

      Na                22.989800


 Effective nuclear repulsion energy (a.u.)       0.0000000000

            Nuclear Dipole moment (a.u.) 
            ----------------------------
        X                 Y               Z
 ---------------- ---------------- ----------------
     0.0000000000     0.0000000000     0.0000000000


                      Basis "ao basis" -> "ao basis" (cartesian)
                      -----
  Na (Sodium)
  -----------
            Exponent  Coefficients 
       -------------- ---------------------------------------------------------
  1 S  4.23000000E+05  0.213521
  1 S  6.33400000E+04  0.399616
  1 S  1.44100000E+04  0.692209
  1 S  4.07700000E+03  1.131605
  1 S  1.32800000E+03  1.757339
  1 S  4.78600000E+02  2.573164
  1 S  1.86200000E+02  3.448533
  1 S  7.69200000E+01  3.956672
  1 S  3.33200000E+01  3.446598
  1 S  1.50000000E+01  1.763179
  1 S  6.86900000E+00  0.340613
  1 S  2.68300000E+00  0.010561
  1 S  1.10900000E+00  0.000461
  1 S  6.01500000E-02 -0.000000

  2 S  4.23000000E+05 -0.065388
  2 S  6.33400000E+04 -0.122676
  2 S  1.44100000E+04 -0.211930
  2 S  4.07700000E+03 -0.348689
  2 S  1.32800000E+03 -0.541713
  2 S  4.78600000E+02 -0.811087
  2 S  1.86200000E+02 -1.118088
  2 S  7.69200000E+01 -1.408137
  2 S  3.33200000E+01 -1.444773
  2 S  1.50000000E+01 -1.107643
  2 S  6.86900000E+00 -0.166599
  2 S  2.68300000E+00  0.633756
  2 S  1.10900000E+00  0.542721
  2 S  6.01500000E-02  0.000442

  3 S  4.23000000E+05  0.012968
  3 S  6.33400000E+04  0.024283
  3 S  1.44100000E+04  0.042069
  3 S  4.07700000E+03  0.068971
  3 S  1.32800000E+03  0.107687
  3 S  4.78600000E+02  0.160454
  3 S  1.86200000E+02  0.223253
  3 S  7.69200000E+01  0.279949
  3 S  3.33200000E+01  0.294139
  3 S  1.50000000E+01  0.226026
  3 S  6.86900000E+00  0.038202
  3 S  2.68300000E+00 -0.151930
  3 S  1.10900000E+00 -0.147470
  3 S  6.01500000E-02  0.089717

  4 S  4.54000000E-01  0.394187

  5 S  2.38200000E-02  0.043213

  6 S  6.65000000E-03  0.016597

  7 P  2.43300000E+02  3.073934
  7 P  5.73900000E+01  3.918290
  7 P  1.81000000E+01  4.120205
  7 P  6.57500000E+00  3.288710
  7 P  2.52100000E+00  1.714221
  7 P  9.60700000E-01  0.535468
  7 P  3.51200000E-01  0.061833
  7 P  9.82700000E-02  0.000183

  8 P  2.43300000E+02 -1.630096
  8 P  5.73900000E+01 -2.099831
  8 P  1.81000000E+01 -2.208281
  8 P  6.57500000E+00 -1.808473
  8 P  2.52100000E+00 -0.931256
  8 P  9.60700000E-01 -0.326601
  8 P  3.51200000E-01 -0.039622
  8 P  9.82700000E-02  0.076675

  9 P  3.73400000E-02  0.023397

 10 P  1.50000000E-02  0.007483

 11 P  7.00000000E-03  0.002886

 12 D  1.36700000E-01  0.050583

 13 D  6.36000000E-02  0.013257

 14 D  2.23000000E-02  0.002118

 15 F  1.39700000E-01  0.017565

 16 F  7.14000000E-02  0.003879



    Basis function labels
    ---------------------
       No.  Atm El Type
       ---  --- -- ----
        1    1 Na s          
        2    1 Na s          
        3    1 Na s          
        4    1 Na s          
        5    1 Na s          
        6    1 Na s          
        7    1 Na px         
        8    1 Na py         
        9    1 Na pz         
       10    1 Na px         
       11    1 Na py         
       12    1 Na pz         
       13    1 Na px         
       14    1 Na py         
       15    1 Na pz         
       16    1 Na px         
       17    1 Na py         
       18    1 Na pz         
       19    1 Na px         
       20    1 Na py         
       21    1 Na pz         
       22    1 Na dxx        
       23    1 Na dxy        
       24    1 Na dxz        
       25    1 Na dyy        
       26    1 Na dyz        
       27    1 Na dzz        
       28    1 Na dxx        
       29    1 Na dxy        
       30    1 Na dxz        
       31    1 Na dyy        
       32    1 Na dyz        
       33    1 Na dzz        
       34    1 Na dxx        
       35    1 Na dxy        
       36    1 Na dxz        
       37    1 Na dyy        
       38    1 Na dyz        
       39    1 Na dzz        
       40    1 Na fxxx       
       41    1 Na fxxy       
       42    1 Na fxxz       
       43    1 Na fxyy       
       44    1 Na fxyz       
       45    1 Na fxzz       
       46    1 Na fyyy       
       47    1 Na fyyz       
       48    1 Na fyzz       
       49    1 Na fzzz       
       50    1 Na fxxx       
       51    1 Na fxxy       
       52    1 Na fxxz       
       53    1 Na fxyy       
       54    1 Na fxyz       
       55    1 Na fxzz       
       56    1 Na fyyy       
       57    1 Na fyyz       
       58    1 Na fyzz       
       59    1 Na fzzz       
  int_init: cando_txs set to always be  F

 Schwarz integral screening summary 
 ---------------------------------- 

        No. of atom pairs =       1
       No. of shell pairs =     136

 Atomic screening 

   value      no.     value      no.     value      no.     value      no.   
  -------- ------    -------- ------    -------- ------    -------- ------   
  0.00D+00      0    1.00D-13      0    1.00D-12      0    1.00D-11      0
  1.00D-10      0    1.00D-09      0    1.00D-08      0    1.00D-07      0
  1.00D-06      0    1.00D-05      0    1.00D-04      0    1.00D-03      0
  1.00D-02      0    1.00D-01      0    1.00D+00      1    1.00D+01      0


 Shell screening 

   value      no.     value      no.     value      no.     value      no.   
  -------- ------    -------- ------    -------- ------    -------- ------   
  0.00D+00      0    1.00D-13      0    1.00D-12      0    1.00D-11      0
  1.00D-10      0    1.00D-09      0    1.00D-08      0    1.00D-07      0
  1.00D-06      0    1.00D-05      1    1.00D-04      3    1.00D-03      5
  1.00D-02     13    1.00D-01     64    1.00D+00     50    1.00D+01      0


  Caching 1-el integrals 
  atom                     1  - neighbor  & S                     1   10.000000000000000       exp AB    7.0000000000000053E-003   7.0000000000000053E-003
 zmins =     0.007000000    0.007000000 lprod =   2 range =        38.82 acc   0.10D-06
 sh     0.000000000
  Center:                     1  Radial Pts. & Wghts. 
    1        0.000005473           4.9170296E-16
    2        0.000043781           1.2587688E-13
    3        0.000147761           3.2261511E-12
    4        0.000350252           3.2226375E-11
    5        0.000684097           1.9209645E-10
    6        0.001182149           8.2605844E-10
    7        0.001877271           2.8355869E-09
    8        0.002802347           8.2538303E-09
    9        0.003990288           2.1182373E-08
   10        0.005474036           4.9221862E-08
   11        0.007286574           1.0554809E-07
   12        0.009460941           2.1180679E-07
   13        0.012030235           4.0202271E-07
   14        0.015027631           7.2774217E-07
   15        0.018486392           1.2646525E-06
   16        0.022439882           2.1209482E-06
   17        0.026921584           3.4477405E-06
   18        0.031965116           5.4518385E-06
   19        0.037604244           8.4112598E-06
   20        0.043872907           1.2693865E-05
   21        0.050805236           1.8779547E-05
   22        0.058435570           2.7286455E-05
   23        0.066798486           3.9001757E-05
   24        0.075928817           5.4917535E-05
   25        0.085861680           7.6272415E-05
   26        0.096632502           1.0459963E-04
   27        0.108277050           1.4178231E-04
   28        0.120831456           1.9011672E-04
   29        0.134332254           2.5238455E-04
   30        0.148816410           3.3193511E-04
   31        0.164321356           4.3277861E-04
   32        0.180885028           5.5969187E-04
   33        0.198545905           7.1833766E-04
   34        0.217343050           9.1539938E-04
   35        0.237316149           1.1587327E-03
   36        0.258505561           1.4575361E-03
   37        0.280952364           1.8225425E-03
   38        0.304698404           2.2662340E-03
   39        0.329786347           2.8030831E-03
   40        0.356259741           3.4498226E-03
   41        0.384163067           4.2257483E-03
   42        0.413541806           5.1530567E-03
   43        0.444442506           6.2572246E-03
   44        0.476912848           7.5674323E-03
   45        0.511001724           9.1170378E-03
   46        0.546759312           1.0944108E-02
   47        0.584237163           1.3092009E-02
   48        0.623488286           1.5610076E-02
   49        0.664567244           1.8554351E-02
   50        0.707530255           2.1988419E-02
   51        0.752435296           2.5984339E-02
   52        0.799342218           3.0623693E-02
   53        0.848312866           3.5998756E-02
   54        0.899411211           4.2213814E-02
   55        0.952703487           4.9386643E-02
   56        1.008258337           5.7650176E-02
   57        1.066146976           6.7154368E-02
   58        1.126443359           7.8068309E-02
   59        1.189224364           9.0582598E-02
   60        1.254569988           1.0491203E-01
   61        1.322563563           1.2129861E-01
   62        1.393291980           1.4001500E-01
   63        1.466845937           1.6136840E-01
   64        1.543320210           1.8570494E-01
   65        1.622813935           2.1341468E-01
   66        1.705430927           2.4493732E-01
   67        1.791280017           2.8076866E-01
   68        1.880475423           3.2146798E-01
   69        1.973137152           3.6766653E-01
   70        2.069391441           4.2007715E-01
   71        2.169371233           4.7950542E-01
   72        2.273216709           5.4686235E-01
   73        2.381075858           6.2317909E-01
   74        2.493105110           7.0962388E-01
   75        2.609470038           8.0752156E-01
   76        2.730346116           9.1837637E-01
   77        2.855919578           1.0438982E+00
   78        2.986388345           1.1860334E+00
   79        3.121963077           1.3470006E+00
   80        3.262868324           1.5293326E+00
   81        3.409343820           1.7359258E+00
   82        3.561645926           1.9700982E+00
   83        3.720049242           2.2356579E+00
   84        3.884848428           2.5369845E+00
   85        4.056360242           2.8791261E+00
   86        4.234925855           3.2679140E+00
   87        4.420913466           3.7101021E+00
   88        4.614721274           4.2135324E+00
   89        4.816780882           4.7873371E+00
   90        5.027561170           5.4421826E+00
   91        5.247572774           6.1905676E+00
   92        5.477373228           7.0471884E+00
   93        5.717572943           8.0293896E+00
   94        5.968842151           9.1577228E+00
   95        6.231919035           1.0456643E+01
   96        6.507619285           1.1955382E+01
   97        6.796847386           1.3689057E+01
   98        7.100610043           1.5700078E+01
   99        7.420032239           1.8039952E+01
  100        7.756376571           2.0771630E+01
  101        8.111066698           2.3972565E+01
  102        8.485716014           2.7738750E+01
  103        8.882162992           3.2190112E+01
  104        9.302515145           3.7477794E+01
  105        9.749204295           4.3794111E+01
  106       10.225056775           5.1386379E+01
  107       10.733383732           6.0576392E+01
  108       11.278098835           7.1788373E+01
  109       11.863874016           8.5589824E+01
  110       12.496349033           1.0275259E+02
  111       13.182418819           1.2434635E+02
  112       13.930636097           1.5188585E+02
  113       14.751789580           1.8757024E+02
  114       15.659758542           2.3468707E+02
  115       16.672819179           2.9832453E+02
  116       17.815723639           3.8669484E+02
  117       19.123174625           5.1375518E+02
  118       20.645996600           7.0482858E+02
  119       22.462984503           1.0099590E+03
  120       24.706142681           1.5403258E+03
  121       27.622934030           2.5891307E+03
  122       31.768922065           5.1800457E+03
  123       38.916865767           1.5675031E+04
     irreducible set of Lebedev Angular points ;
  0.009523809523810  1.000000000000000  0.000000000000000  0.000000000000000
  0.032142857142857  0.577350269189626  0.577350269189626  0.577350269189626
  0.028571428571429  0.459700843380983  0.000000000000000  0.888073833977115
   total no. of   reducible points:  38; test:  1.00000000
  0.012698412698413  1.000000000000000  0.000000000000000  0.000000000000000
  0.022574955908289  0.707106781186547  0.707106781186547  0.000000000000000
  0.021093750000000  0.577350269189626  0.577350269189626  0.577350269189626
  0.020173335537919  0.301511344577764  0.301511344577764  0.904534033733291
   total no. of   reducible points:  50; test:  1.00000000
  0.000513067179734  1.000000000000000  0.000000000000000  0.000000000000000
  0.016604069565742  0.707106781186547  0.707106781186547  0.000000000000000
 -0.029586038961039  0.577350269189626  0.577350269189626  0.577350269189626
  0.026576207082159  0.480384461415261  0.480384461415261  0.733799385705343
  0.016522170993716  0.320772648980776  0.000000000000000  0.947156221362588
   total no. of   reducible points:  74; test:  1.00000000
  0.011544011544012  1.000000000000000  0.000000000000000  0.000000000000000
  0.011943909085856  0.577350269189626  0.577350269189626  0.577350269189626
  0.011110555710603  0.369602846454150  0.369602846454150  0.852518311701268
  0.011876501294537  0.694354006602666  0.694354006602666  0.189063552885395
  0.011812303746904  0.374243039090341  0.000000000000000  0.927330657151172
   total no. of   reducible points:  86; test:  1.00000000
  0.003828270494937  1.000000000000000  0.000000000000000  0.000000000000000
  0.009793737512488  0.577350269189626  0.577350269189626  0.577350269189626
  0.008211737283191  0.185115635344736  0.185115635344736  0.965124035086594
  0.009942814891178  0.690421048382292  0.690421048382292  0.215957291845848
  0.009595471336071  0.395689473055942  0.395689473055942  0.828769981252592
  0.009694996361663  0.478369028812150  0.000000000000000  0.878158910604066
   total no. of   reducible points: 110; test:  1.00000000
  0.000599631368862  1.000000000000000  0.000000000000000  0.000000000000000
  0.007372999718621  0.707106781186547  0.707106781186547  0.000000000000000
  0.007210515360144  0.577350269189626  0.577350269189626  0.577350269189626
  0.007116355493118  0.676441040011426  0.676441040011426  0.291298882209527
  0.006753829486314  0.417496122796545  0.417496122796545  0.807089818359583
  0.007574394159054  0.157467667203908  0.157467667203908  0.974888643677173
  0.006991087353303  0.140355381171318  0.449332832326956  0.882270011260323
   total no. of   reducible points: 146; test:  1.00000000
  0.005544842902037  1.000000000000000  0.000000000000000  0.000000000000000
  0.006071332770671  0.707106781186547  0.707106781186547  0.000000000000000
  0.006383674773515  0.577350269189626  0.577350269189626  0.577350269189626
  0.005183387587748  0.255125262111413  0.255125262111413  0.932642590312691
  0.006317929009814  0.674360146036277  0.674360146036277  0.300793595137701
  0.006201670006589  0.431891069671941  0.431891069671941  0.791795559393492
  0.005477143385137  0.261393136033599  0.000000000000000  0.965232421976448
  0.005968383987681  0.499045316179604  0.144663074432512  0.854415804684659
   total no. of   reducible points: 170; test:  1.00000000
  0.001782340447245  1.000000000000000  0.000000000000000  0.000000000000000
  0.005716905949977  0.707106781186547  0.707106781186547  0.000000000000000
  0.005573383178849  0.577350269189626  0.577350269189626  0.577350269189626
  0.005608704082588  0.671297344269523  0.671297344269523  0.314196994182586
  0.005158237711805  0.289246562757544  0.289246562757544  0.912509096867474
  0.005518771467274  0.444693317871744  0.444693317871744  0.777493219314767
  0.004106777028169  0.129933544765007  0.129933544765007  0.982972302707253
  0.005051846064615  0.345770219761128  0.000000000000000  0.938319218137592
  0.005530248916233  0.159041710538353  0.836036015482459  0.525118572443642
   total no. of   reducible points: 194; test:  1.00000000
 -0.055226399197273  1.000000000000000  0.000000000000000  0.000000000000000
  0.004450274607445  0.577350269189626  0.577350269189626  0.577350269189626
  0.004496841067921  0.449204468739761  0.449204468739761  0.772289253148364
  0.005049153450479  0.252041949021020  0.252041949021020  0.934317778845812
  0.003976408018052  0.698190665844724  0.698190665844724  0.158302205463478
  0.004401400650381  0.658740524346096  0.658740524346096  0.363485684956727
  0.017245443505444  0.040385440500977  0.040385440500977  0.998367683967727
  0.004231083095357  0.582384230971558  0.000000000000000  0.812913653173365
  0.005198069864064  0.354587739051869  0.000000000000000  0.935022745880593
  0.004695720972569  0.227218180899819  0.486466153588665  0.843636521068894
   total no. of   reducible points: 230; test:  1.00000000
 -0.001313769127327  1.000000000000000  0.000000000000000  0.000000000000000
 -0.002522728704859  0.707106781186547  0.707106781186547  0.000000000000000
  0.004186853881701  0.577350269189626  0.577350269189626  0.577350269189626
  0.005315167977811  0.703937339158548  0.703937339158548  0.094575076403713
  0.004047142377086  0.101252624857241  0.101252624857241  0.989694807462905
  0.004112482394407  0.464744872642054  0.464744872642054  0.753673939250816
  0.003595584899759  0.327742065497163  0.327742065497163  0.886098344997499
  0.004256131351428  0.662033866369997  0.662033866369997  0.351315128564633
  0.004229582700647  0.850650808352040  0.000000000000000  0.525731112119134
  0.004080914225781  0.323348454269290  0.115311201100970  0.939227929749916
  0.004071467593831  0.231479015871260  0.524493924092236  0.819343388819120
   total no. of   reducible points: 266; test:  1.00000000
  0.000854591172513  1.000000000000000  0.000000000000000  0.000000000000000
  0.003599119285026  0.577350269189626  0.577350269189626  0.577350269189626
  0.003449788424306  0.351564034557011  0.351564034557011  0.867643624544083
  0.003604822601420  0.656632941021961  0.656632941021961  0.371034178384821
  0.003576729661743  0.472905413258100  0.472905413258100  0.743452042987556
  0.002352101413689  0.096183085226148  0.096183085226148  0.990705621379408
  0.003108953122414  0.221964523629418  0.221964523629418  0.949454317226443
  0.003650045807677  0.701176641608955  0.701176641608955  0.129238672710514
  0.002982344963172  0.264415288706066  0.000000000000000  0.964408914879206
  0.003600820932216  0.571895589187896  0.000000000000000  0.820326419827759
  0.003571540554273  0.251003475177047  0.800072749407395  0.544867737258077
  0.003392312205006  0.123354853258333  0.412772408316853  0.902442529533000
   total no. of   reducible points: 302; test:  1.00000000
  0.003006796749454  1.000000000000000  0.000000000000000  0.000000000000000
  0.003050627745651  0.577350269189626  0.577350269189626  0.577350269189626
  0.001621104600289  0.706896546391232  0.706896546391232  0.024383301669356
  0.003005701484902  0.479468262571203  0.479468262571203  0.734996850587746
  0.002990992529654  0.192753315487802  0.192753315487802  0.962129055136014
  0.002982170644108  0.693035796132712  0.693035796132712  0.198501311223365
  0.002721564237311  0.360830211552009  0.360830211552009  0.860001812127547
  0.003033513795811  0.649848616149617  0.649848616149617  0.394199888605839
  0.003007949555219  0.193294501323034  0.000000000000000  0.981140782843257
  0.002881964603055  0.380049491989930  0.000000000000000  0.924966152698679
  0.002958357626536  0.289955882549957  0.793453785658232  0.535123047718276
  0.003036020026407  0.096841214551040  0.828080150668686  0.552182074349399
  0.002832187403926  0.183343464704166  0.907465826530513  0.378009189874487
   total no. of   reducible points: 350; test:  1.00000000
  0.000526589796822  1.000000000000000  0.000000000000000  0.000000000000000
  0.002548219972003  0.707106781186547  0.707106781186547  0.000000000000000
  0.002512317418927  0.577350269189626  0.577350269189626  0.577350269189626
  0.002530403801186  0.690934630750911  0.690934630750911  0.212646824707552
  0.002014279020919  0.177483605460916  0.177483605460916  0.967987158791473
  0.002501725168403  0.491434263778475  0.491434263778475  0.719016501040843
  0.002513267174598  0.645666470742426  0.645666470742426  0.407712664897770
  0.002302694782227  0.286128901030764  0.286128901030764  0.914472801120872
  0.001462495621595  0.075680843671780  0.075680843671780  0.994255912631278
  0.002445373437313  0.392725976336800  0.392725976336800  0.831584400419232
  0.002417442375639  0.881813287779429  0.000000000000000  0.471598691151316
  0.001910951282180  0.977642811118265  0.000000000000000  0.210272522857307
  0.002416930044325  0.205482369640304  0.868946032287241  0.450233038258263
  0.002512236854563  0.590515704892527  0.799927854385729  0.106801826075805
  0.002496644054553  0.555015236107681  0.771746262691590  0.310428403516654
  0.002236607760438  0.937180985855372  0.334436314534346  0.099217696364292
   total no. of   reducible points: 434; test:  1.00000000
  0.000309512129531  1.000000000000000  0.000000000000000  0.000000000000000
  0.001852379698597  0.577350269189626  0.577350269189626  0.577350269189626
  0.001871790639278  0.704095493822747  0.704095493822747  0.092190407076898
  0.001858812585438  0.680774406645524  0.680774406645524  0.270356088359165
  0.001852028828296  0.637254693925875  0.637254693925875  0.433373868777154
  0.001846715956151  0.504441970780036  0.504441970780036  0.700768575373573
  0.001818471778163  0.421576178401097  0.421576178401097  0.802836877335274
  0.001749564657281  0.331792073647212  0.331792073647212  0.883078727934133
  0.001617210647254  0.238473670142189  0.238473670142189  0.941414158220403
  0.001384737234852  0.145903644915776  0.145903644915776  0.978480583762694
  0.000976433116505  0.060950341155072  0.060950341155072  0.996278129754016
  0.001857161196774  0.611684344200988  0.000000000000000  0.791101929626902
  0.001705153996396  0.396475534819986  0.000000000000000  0.918045287711454
  0.001300321685886  0.172478200990772  0.000000000000000  0.985013335028002
  0.001842866472905  0.561026380862206  0.351828092773352  0.749310611904116
  0.001802658934377  0.474239284255198  0.263471665593795  0.840047488359050
  0.001849830560444  0.598412649788538  0.181664084036021  0.780320742479920
  0.001713904507107  0.379103540769556  0.172079522565688  0.909213475092374
  0.001555213603397  0.277867319058624  0.082130215819325  0.957102074310073
  0.001802239128009  0.503356427107512  0.089992058420749  0.859379855890721
   total no. of   reducible points: 590; test:  1.00000000
  0.000219294208818  1.000000000000000  0.000000000000000  0.000000000000000
  0.001436433617319  0.707106781186547  0.707106781186547  0.000000000000000
  0.001421940344336  0.577350269189626  0.577350269189626  0.577350269189626
  0.000679812351105  0.050872044105024  0.050872044105024  0.997408677652823
  0.000991318423529  0.122819879017883  0.122819879017883  0.984799753572301
  0.001180207833239  0.202689081440879  0.202689081440879  0.958036675983391
  0.001296599602081  0.284774515646429  0.284774515646429  0.915317950483155
  0.001365871427428  0.365671907897803  0.365671907897803  0.855901928697887
  0.001402988604775  0.442826488671347  0.442826488671347  0.779621319527635
  0.001418645563596  0.514061962724974  0.514061962724974  0.686644447264154
  0.001421376741852  0.630640121916680  0.630640121916680  0.452311920313658
  0.001423996475491  0.671688333202261  0.671688333202261  0.312521305001653
  0.001431554042179  0.697979268533688  0.697979268533688  0.160155803498829
  0.000925440149987  0.144686567419531  0.000000000000000  0.989477537495599
  0.001250239995054  0.339026347541122  0.000000000000000  0.940776878793759
  0.001394365843329  0.533580465126351  0.000000000000000  0.845749305193653
  0.001127089094672  0.069440243933494  0.235518789424233  0.969385863498432
  0.001345753760911  0.226900410952946  0.410218247404573  0.883310360522113
  0.001424957283317  0.080255746077753  0.621430241748161  0.779348105702661
  0.001261523341238  0.146799952789657  0.324528434571739  0.934414827052402
  0.001392547106053  0.157150776982473  0.522448218969663  0.838064133458312
  0.001418761677878  0.236570299315725  0.601754663408956  0.762840624604670
  0.001338366684480  0.077148158667657  0.434657551614116  0.897285336132833
  0.001393700862676  0.306293666621073  0.490882658903762  0.815609223203975
  0.001415914757467  0.382247737952479  0.564876814909950  0.731300793659766
   total no. of   reducible points: 770; test:  1.00000000
  qrot: 

              1        2        3      
    1    1.0000   0.0000   0.0000
    2    0.0000   1.0000   0.0000
    3    0.0000   0.0000   1.0000
  me                     0   done genpts
  me                     1   done genpts
  me                     2   done genpts
  me                     3   done genpts
  me                     4   done genpts
  me                     5   done genpts
  me                     6   done genpts
  me                     7   done genpts
  me                     0   done uprt
  me                     1   done uprt
  me                     2   done uprt
  me                     3   done uprt
  me                     4   done uprt
  me                     5   done uprt
  me                     6   done uprt
  me                     7   done uprt
  me                     0  done mem
  me                     1  done mem
  me                     2  done mem
  me                     3  done mem
  me                     4  done mem
  me                     5  done mem
  me                     6  done mem
  me                     7  done mem
  dftinpanae: itol2e                     8  iaoacc                    14  tol_rho    1.0000000000000000E-010

            General Information
            -------------------
          SCF calculation type: DFT
          Wavefunction type:  spin polarized.
          No. of atoms     :     1
          No. of electrons :    11
           Alpha electrons :     6
            Beta electrons :     5
          Charge           :     0
          Spin multiplicity:     2
          Use of symmetry is: off; symmetry adaption is: off
          Maximum number of iterations:  50
          AO basis - number of functions:    59
                     number of shells:    16
          Convergence on energy requested:  1.00D-06
          Convergence on density requested:  1.00D-05
          Convergence on gradient requested:  5.00D-04

              XC Information
              --------------
                     Hartree-Fock (Exact) Exchange  1.000          
                     LC-wPBE(h)Exchange Functional  1.000          
            Perdew 1991 LDA Correlation Functional  1.000 local    
           PerdewBurkeErnz. Correlation Functional  1.000 non-local

           Range-Separation Parameters        
           ---------------------------
           Alpha           :  0.00
           Beta            :  1.00
           Gamma           :  0.22
           Short-Range HF  :     F

             Grid Information
             ----------------
          Grid used for XC integration:  fine      
          Radial quadrature: Mura-Knowles        
          Angular quadrature: Lebedev. 
          Tag              B.-S. Rad. Rad. Pts. Rad. Cut. Ang. Pts.
          ---              ---------- --------- --------- ---------
          Na                  1.80      123          21.0       770
          Grid pruning is: on 
          Number of quadrature shells:   123
          Spatial weights used:  Erf1

          Convergence Information
          -----------------------
          Convergence aids based upon iterative change in 
          total energy or number of iterations. 
          Levelshifting, if invoked, occurs when the 
          HOMO/LUMO gap drops below (HL_TOL):  1.00D-02
          DIIS, if invoked, will attempt to extrapolate 
          using up to (NFOCK): 10 stored Fock matrices.

                    Damping( 0%)  Levelshifting(0.5)       DIIS
                  --------------- ------------------- ---------------
          dE  on:    start            ASAP                start   
          dE off:    2 iters         50 iters            50 iters 


      Screening Tolerance Information
      -------------------------------
          Density screening/tol_rho:  1.00D-10
          AO Gaussian exp screening on grid/accAOfunc:  14
          CD Gaussian exp screening on grid/accCDfunc:  20
          XC Gaussian exp screening on grid/accXCfunc:  20
          Schwarz screening/accCoul:  1.00D-08



                         Geometry "geometry" -> "geometry"
                         ---------------------------------

 Output coordinates in angstroms (scale by  1.889725989 to convert to a.u.)

  No.       Tag          Charge          X              Y              Z
 ---- ---------------- ---------- -------------- -------------- --------------
    1 Na                  11.0000     0.00000000     0.00000000     0.00000000

      Atomic Mass 
      ----------- 

      Na                22.989800


 Effective nuclear repulsion energy (a.u.)       0.0000000000

            Nuclear Dipole moment (a.u.) 
            ----------------------------
        X                 Y               Z
 ---------------- ---------------- ----------------
     0.0000000000     0.0000000000     0.0000000000

  
  CAM type calculations without CDFIT are
  only available with the direct option.
  Forcing Direct SCF
  


     <<<<<<    Before call to DFT_SCF.    >>>>>>
     <<<<<< date:  May  8  time: 11:53:47 >>>>>>


 Setting tolerance for linear dependence to 1.00D-05



 Setting tolerance for linear dependence to 1.00D-05

 Setting tolerance for linear dependence to 1.00D-05

 Setting tolerance for linear dependence to 1.00D-05

 Setting tolerance for linear dependence to 1.00D-05

 Setting tolerance for linear dependence to 1.00D-05
 Setting tolerance for linear dependence to 1.00D-05
 Setting tolerance for linear dependence to 1.00D-05
  lindep tolerance =    1.0000000000000001E-005
  lindep tolerance =    1.0000000000000001E-005
  lindep tolerance =    1.0000000000000001E-005
  lindep tolerance =    1.0000000000000001E-005
  lindep tolerance =    1.0000000000000001E-005
  lindep tolerance =    1.0000000000000001E-005
  lindep tolerance =    1.0000000000000001E-005
  lindep tolerance =    1.0000000000000001E-005


     <<<<<<    Before 3c-2e initialize.   >>>>>>
     <<<<<< date:  May  8  time: 11:53:47 >>>>>>


 Setting fock-build task_bf   :      -1
                    maxquartet:   10000
                    maxeri    :  129600
                    maxscr    :       0
                    intacc    : 0.0D+00
                    denscreen : T
                    dentol    : 1.0D-06


      Superposition of Atomic Density Guess
      -------------------------------------

 Sum of atomic energies:        -161.85799798

      Non-variational initial energy
      ------------------------------

 Total energy =    -161.804187
 1-e energy   =    -227.873827
 2-e energy   =      66.069640
 HOMO         =      -0.077015
 LUMO         =       0.012581


 Setting fock-build task_bf   :      -1
                    maxquartet:   10000
                    maxeri    :  129600
                    maxscr    :       0
                    intacc    : 0.0D+00
                    denscreen : T
                    dentol    : 1.0D-06


 Wrote molecular orbitals to ./na.movecs

  WARNING: movecs_in_org=atomic not equal to movecs_in=./na.movecs
   Time after variat. SCF:      1.2

 Setting fock-build task_bf   :      -1
                    maxquartet:   10000
                    maxeri    :  129600
                    maxscr    :       0
                    intacc    : 0.0D+00
                    denscreen : T
                    dentol    : 1.0D-06

   Time prior to 1st pass:      1.2


     <<<<<<      Before SCF iter loop.    >>>>>>
     <<<<<< date:  May  8  time: 11:53:48 >>>>>>

           DAMPING=T LEVELSHIFTING=F DIISING=T
          itol2e= 8 iAOacc=12 iXCacc=20


     <<<<<<            calling 1-e int    >>>>>>
     <<<<<< date:  May  8  time: 11:53:48 >>>>>>

    Kinetic Matrix Time:          0.0s

           Kinetic energy =    161.815208709238

    Potential Matrix Time:          0.0s


     <<<<<<    Before call to GETVXC.     >>>>>>
     <<<<<< date:  May  8  time: 11:53:48 >>>>>>



     <<<<<<    Before call to fock_2e.    >>>>>>
     <<<<<< date:  May  8  time: 11:53:48 >>>>>>



     <<<<<<     After call to fock_2e.    >>>>>>
     <<<<<< date:  May  8  time: 11:53:48 >>>>>>

    Fock_2e Build Time:          0.2s
  *** grid_quadv0:                    calc_type:                    1
  *** grid_quadv0:                    grid_written: F
  *** grid_quadv0:                    grad: T
  *** grid_quadv0:                    kske: F
  *** grid_quadv0:                    kslap: F
  *** grid_quadv0:                    do_scf: T
  *** grid_quadv0:                    fde_option:                    0
  *** grid_quadv0:                    n_per_rec:                 3070
  *** grid_quadv0:                    calc_type:                    1
  *** grid_quadv0:                    grid_written: F
  *** grid_quadv0:                    grad: T
  *** grid_quadv0:                    kske: F
  *** grid_quadv0:                    kslap: F
  *** grid_quadv0:                    do_scf: T
  *** grid_quadv0:                    calc_type:                    1
  *** grid_quadv0:                    grid_written: F
  *** grid_quadv0:                    grad: T
  *** grid_quadv0:                    kske: F
  *** grid_quadv0:                    kslap: F
  *** grid_quadv0:                    do_scf: T
  *** grid_quadv0:                    fde_option:                    0
  *** grid_quadv0:                    n_per_rec:                 3070
  *** grid_quadv0:                    calc_type:                    1
  *** grid_quadv0:                    grid_written: F
  *** grid_quadv0:                    grad: T
  *** grid_quadv0:                    kske: F
  *** grid_quadv0:                    kslap: F
  *** grid_quadv0:                    do_scf: T
  *** grid_quadv0:                    fde_option:                    0
  *** grid_quadv0:                    n_per_rec:                 3070
  *** grid_quadv0:                    calc_type:                    1
  *** grid_quadv0:                    grid_written: F
  *** grid_quadv0:                    grad: T
  *** grid_quadv0:                    kske: F
  *** grid_quadv0:                    kslap: F
  *** grid_quadv0:                    do_scf: T
  *** grid_quadv0:                    fde_option:                    0
  *** grid_quadv0:                    n_per_rec:                 3070
  *** grid_quadv0:                    calc_type:                    1
  *** grid_quadv0:                    grid_written: F
  *** grid_quadv0:                    grad: T
  *** grid_quadv0:                    kske: F
  *** grid_quadv0:                    kslap: F
  *** grid_quadv0:                    do_scf: T
  *** grid_quadv0:                    fde_option:                    0
  *** grid_quadv0:                    n_per_rec:                 3070
  *** grid_quadv0:                    calc_type:                    1
  *** grid_quadv0:                    grid_written: F
  *** grid_quadv0:                    grad: T
  *** grid_quadv0:                    kske: F
  *** grid_quadv0:                    kslap: F
  *** grid_quadv0:                    do_scf: T
  *** grid_quadv0:                    fde_option:                    0
  *** grid_quadv0:                    n_per_rec:                 3070
  *** grid_quadv0:                    calc_type:                    1
  *** grid_quadv0:                    grid_written: F
  *** grid_quadv0:                    grad: T
  *** grid_quadv0:                    kske: F
  *** grid_quadv0:                    kslap: F
  *** grid_quadv0:                    do_scf: T
  *** grid_quadv0:                    fde_option:                    0
  *** grid_quadv0:                    n_per_rec:                 3070
  *** grid_quadv0:                    fde_option:                    0
  *** grid_quadv0:                    n_per_rec:                 3070
   1: nuse=   8 avail= 12500000Mb on .
   3: nuse=   8 avail= 12500000Mb on .
   4: nuse=   8 avail= 12500000Mb on .
   5: nuse=   8 avail= 12500000Mb on .
   7: nuse=   8 avail= 12500000Mb on .
   0: nuse=   8 avail= 12500000Mb on .
   2: nuse=   8 avail= 12500000Mb on .
   6: nuse=   8 avail= 12500000Mb on .
 l_cube input   11.00

  atom type   l_cube   no. cubes   segmts   rad   sub
 ----------- -------- ----------- -------- ----- -----
        1     11.14       282         7      39     8

 Grid_pts file          = ./na.gridpts.0
 Record size in doubles =  12289        No. of grid_pts per rec  =   3070
 Max. records in memory =      6        Max. recs in file   = 126656358

 me   0 NQTOTC NQ/cube   10774      98
 me   1 NQTOTC NQ/cube    4518     136
 me   2 NQTOTC NQ/cube    5632     312
 me   3 NQTOTC NQ/cube    5552     277
 me   4 NQTOTC NQ/cube    3965     180
 me   5 NQTOTC NQ/cube    5479     365
 me   6 NQTOTC NQ/cube    4970     292
 me   7 NQTOTC NQ/cube    4392     183

 XC quadr. integrated density :      11.000000 npts:    44965 nctrs:        1

    Fock_xc Build Time:          0.1s


     <<<<<<    Before call to GETVCOUL.   >>>>>>
     <<<<<< date:  May  8  time: 11:53:48 >>>>>>



     <<<<<<    End of parallel region.    >>>>>>
     <<<<<< date:  May  8  time: 11:53:48 >>>>>>

    Total Fock Matrix Build Time:          0.3s
 Etnew, Ecore, Ecoul, Exc(1), Exc(2), Totsic:   -162.16914594421854       -227.64550406158943        79.794191110895397       -14.317832993524526        0.0000000000000000        0.0000000000000000     
  delta =   -162.16914594421854     
  delta =   -162.16914594421854     
  delta =   -162.16914594421854     
  delta =   -162.16914594421854     


         Total DFT energy =     -162.169145944219
      One electron energy =     -227.645504061589
           Coulomb energy =       79.794191110895
    Exchange-Corr. energy =      -14.317832993525
 Nuclear repulsion energy =        0.000000000000

  delta =   -162.16914594421854     
  delta =   -162.16914594421854     
  delta =   -162.16914594421854     
  delta =   -162.16914594421854     
 Numeric. integr. density =       10.999999998612

     Total iterative time =      2.6s




     <<<<<<        calling diis driver    >>>>>>
     <<<<<< date:  May  8  time: 11:53:48 >>>>>>

 nhist                     1  pulay matrix 
   0.0000E+00
  -1.0000E+00   4.4824E-02


     <<<<<<         called diis driver    >>>>>>
     <<<<<< date:  May  8  time: 11:53:48 >>>>>>


 global array: fock transf[1:59,1:59],  handle: -940 

            1           2           3           4           5           6  
       ----------- ----------- ----------- ----------- ----------- -----------
   1       1.22130     0.00000     0.00000    -0.00000    -1.14636    -0.00000
   2       0.00000     0.48871     0.00000     0.00000    -0.00000    -0.00000
   3       0.00000     0.00000     0.48871    -0.00000    -0.00000     0.00000
   4      -0.00000     0.00000    -0.00000     0.48871     0.00000     0.00000
   5      -1.14636    -0.00000    -0.00000     0.00000     1.90009    -0.00000
   6      -0.00000    -0.00000     0.00000     0.00000    -0.00000     0.57110
   7       0.00000    -0.20973     0.14164     0.15818     0.00000    -0.00000
   8      -0.00000     0.18913     0.02357     0.22965     0.00000    -0.00000
   9       0.00000    -0.09650    -0.26163     0.10632     0.00000    -0.00000
  10       0.00000    -0.00000     0.00000    -0.00000     0.00000     0.00000
  11       0.00000     0.00000    -0.00000    -0.00000     0.00000    -0.00000
  12      -0.00000    -0.00000    -0.00000     0.00000     0.00000    -0.00000
  13       0.00000    -0.00000     0.00000     0.00000     0.00000    -0.00000
  14       0.00000     0.00000    -0.00000     0.00000     0.00000    -0.00000
  15       0.00000    -0.00000     0.00000    -0.00000    -0.00000    -0.00000
  16      -0.00000     0.00307     0.04748     0.00753    -0.00000     0.00000
  17      -0.00000     0.04622    -0.00499     0.01260    -0.00000    -0.00000
  18       0.00000    -0.01319    -0.00642     0.04588     0.00000    -0.00000
  19      -0.05406    -0.00000    -0.00000     0.00000     0.35816    -0.00000
  20       0.00000     0.00944    -0.05878    -0.03252    -0.00000    -0.00000
  21       0.00000     0.00836    -0.03155     0.05946    -0.00000     0.00000
  22      -0.00000     0.06665     0.01228    -0.00286     0.00000     0.00000
  23      -0.00000    -0.00000    -0.00000    -0.00000    -0.00000    -0.00000
  24       0.00000     0.00000    -0.00000     0.00000    -0.00000     0.00000
  25      -0.00000    -0.00000     0.00000     0.00000    -0.00000     0.19203
  26      -0.36999    -0.00000    -0.00000     0.00000     0.79539     0.00000
  27      -0.00000     0.00000    -0.00000     0.00000    -0.00000     0.00000
  28      -0.00000    -0.00000    -0.00000    -0.00000     0.00000     0.00000
  29      -0.00000    -0.00000     0.00000     0.00000     0.00000    -0.00000
  30       0.00000    -0.00000     0.00000    -0.00000    -0.00000    -0.00000
  31      -0.00000     0.00000    -0.00000     0.00000    -0.00000    -0.00000
  32       0.00000     0.00000    -0.00000     0.00000    -0.00000     0.00000
  33      -0.21415    -0.00000    -0.00000     0.00000     0.25764     0.00000
  34      -0.00000    -0.02550     0.00162    -0.06574    -0.00000     0.00000
  35      -0.00000     0.01848     0.06784    -0.00549     0.00000     0.00000
  36      -0.00000     0.06311    -0.01921    -0.02495    -0.00000     0.00000
  37       0.00000    -0.01103    -0.04437    -0.02267     0.00000     0.00000
  38      -0.00000    -0.00814     0.02451    -0.04402     0.00000     0.00000
  39       0.00000    -0.04916     0.00590     0.01238    -0.00000    -0.00000
  40      -0.00000    -0.00000    -0.00000    -0.00000     0.00000    -0.00000
  41       0.00000     0.00000    -0.00000     0.00000    -0.00000     0.00000
  42       0.00000    -0.00000    -0.00000     0.00000     0.00000    -0.00000
  43       0.00000    -0.00000     0.00000    -0.00000     0.00000    -0.00000
  44       0.00000     0.00000     0.00000     0.00000    -0.00000     0.00000
  45      -0.08369    -0.00000    -0.00000    -0.00000     0.18536     0.00000
  46      -0.00000    -0.00947     0.01096    -0.01809     0.00000     0.00000
  47       0.00000    -0.01617    -0.01653    -0.00155     0.00000     0.00000
  48      -0.00000     0.01364    -0.01199    -0.01440    -0.00000     0.00000
  49       0.00000     0.01392     0.00157    -0.00914     0.00000     0.00000
  50       0.00000    -0.00313    -0.01472    -0.00729    -0.00000    -0.00000
  51       0.00000    -0.00873     0.00778    -0.01196    -0.00000    -0.00000
  52      -0.00000    -0.00000     0.00000    -0.00000     0.00000     0.00000
  53      -0.00000    -0.00000    -0.00000     0.00000    -0.00000     0.00000
  54       0.03857     0.00000     0.00000    -0.00000    -0.07904    -0.00000
  55      -0.08575    -0.00000    -0.00000     0.00000     0.14913     0.00000
  56       0.00000    -0.00889     0.00190     0.00114     0.00000     0.00000
  57      -0.00000    -0.00010     0.00435    -0.00806    -0.00000     0.00000
  58       0.00000     0.00222     0.00783     0.00420    -0.00000    -0.00000
  59      -0.02228    -0.00000    -0.00000     0.00000     0.04054    -0.00000

            7           8           9          10          11          12  
       ----------- ----------- ----------- ----------- ----------- -----------
   1       0.00000    -0.00000     0.00000     0.00000     0.00000    -0.00000
   2      -0.20973     0.18913    -0.09650    -0.00000     0.00000    -0.00000
   3       0.14164     0.02357    -0.26163     0.00000    -0.00000    -0.00000
   4       0.15818     0.22965     0.10632    -0.00000    -0.00000     0.00000
   5       0.00000     0.00000     0.00000     0.00000     0.00000     0.00000
   6      -0.00000    -0.00000    -0.00000     0.00000    -0.00000    -0.00000
   7       0.72095    -0.00000     0.00000    -0.00000     0.00000     0.00000
   8      -0.00000     0.72095     0.00000    -0.00000     0.00000    -0.00000
   9      -0.00000     0.00000     0.72095    -0.00000    -0.00000     0.00000
  10      -0.00000    -0.00000    -0.00000     0.57110    -0.00000    -0.00000
  11       0.00000     0.00000    -0.00000    -0.00000     0.57110    -0.00000
  12       0.00000    -0.00000     0.00000    -0.00000    -0.00000     0.57110
  13      -0.00000     0.00000    -0.00000     0.00000     0.00000     0.00000
  14      -0.00000    -0.00000    -0.00000    -0.00000     0.00000    -0.00000
  15      -0.00000    -0.00000     0.00000    -0.00000     0.00000     0.00000
  16       0.05158     0.02433    -0.08453    -0.00000    -0.00000     0.00000
  17      -0.05964     0.08170    -0.01288    -0.00000     0.00000    -0.00000
  18       0.06465     0.05596     0.05556     0.00000     0.00000     0.00000
  19       0.00000     0.00000    -0.00000     0.00000     0.00000     0.00000
  20       0.11532     0.05277    -0.08219     0.00000    -0.00000    -0.00000
  21      -0.02376    -0.10820    -0.10280    -0.00000    -0.00000    -0.00000
  22       0.09474    -0.09137     0.07427     0.00000     0.00000    -0.00000
  23      -0.00000    -0.00000    -0.00000     0.00000     0.00000    -0.00000
  24      -0.00000    -0.00000    -0.00000     0.00000    -0.00000    -0.00000
  25      -0.00000     0.00000    -0.00000     0.00000     0.00000    -0.00000
  26       0.00000     0.00000    -0.00000    -0.00000     0.00000    -0.00000
  27       0.00000    -0.00000     0.00000    -0.09934    -0.16426     0.00517
  28      -0.00000     0.00000    -0.00000     0.16043    -0.09824    -0.03853
  29       0.00000     0.00000     0.00000    -0.03560     0.01562    -0.18805
  30      -0.00000    -0.00000    -0.00000    -0.00000    -0.00000     0.00000
  31       0.00000    -0.00000     0.00000    -0.00000    -0.00000    -0.00000
  32      -0.00000     0.00000     0.00000    -0.00000    -0.00000     0.00000
  33       0.00000     0.00000    -0.00000    -0.00000    -0.00000    -0.00000
  34      -0.00318    -0.01313    -0.00327    -0.00000    -0.00000    -0.00000
  35       0.00321     0.00253    -0.01329    -0.00000     0.00000     0.00000
  36      -0.01315     0.00380    -0.00245     0.00000     0.00000     0.00000
  37      -0.01860    -0.02052     0.02526    -0.00000    -0.00000     0.00000
  38      -0.00439    -0.02725    -0.02537     0.00000     0.00000    -0.00000
  39       0.03225    -0.01554     0.01111     0.00000     0.00000     0.00000
  40      -0.00000    -0.00000     0.00000     0.00000    -0.00000    -0.00000
  41      -0.00000     0.00000    -0.00000     0.00000     0.00000    -0.00000
  42       0.00000    -0.00000    -0.00000    -0.00000    -0.00000    -0.00000
  43      -0.00000     0.00000    -0.00000     0.00000     0.00000     0.00000
  44      -0.00000    -0.00000    -0.00000     0.00000     0.00000    -0.00000
  45       0.00000     0.00000    -0.00000     0.00000     0.00000    -0.00000
  46       0.00685    -0.05771    -0.03934     0.00000     0.00000     0.00000
  47       0.00815    -0.03859     0.05805     0.00000    -0.00000     0.00000
  48      -0.06937    -0.01023     0.00294    -0.00000     0.00000    -0.00000
  49      -0.00486     0.00067    -0.00320     0.00000    -0.00000     0.00000
  50      -0.00303    -0.00307     0.00396     0.00000     0.00000    -0.00000
  51       0.00122    -0.00495    -0.00289    -0.00000    -0.00000    -0.00000
  52       0.00000    -0.00000     0.00000    -0.00000    -0.00000    -0.00000
  53      -0.00000    -0.00000     0.00000     0.00000    -0.00000    -0.00000
  54      -0.00000     0.00000    -0.00000     0.00000    -0.00000     0.00000
  55       0.00000    -0.00000     0.00000    -0.00000     0.00000    -0.00000
  56       0.02685    -0.01596     0.00558     0.00000    -0.00000    -0.00000
  57      -0.00740    -0.02051    -0.02305    -0.00000    -0.00000    -0.00000
  58       0.01520     0.01820    -0.02108     0.00000    -0.00000     0.00000
  59      -0.00000    -0.00000     0.00000    -0.00000     0.00000     0.00000

           13          14          15          16          17          18  
       ----------- ----------- ----------- ----------- ----------- -----------
   1       0.00000     0.00000     0.00000    -0.00000    -0.00000     0.00000
   2      -0.00000     0.00000    -0.00000     0.00307     0.04622    -0.01319
   3       0.00000    -0.00000     0.00000     0.04748    -0.00499    -0.00642
   4       0.00000     0.00000    -0.00000     0.00753     0.01260     0.04588
   5       0.00000     0.00000    -0.00000    -0.00000    -0.00000     0.00000
   6      -0.00000    -0.00000    -0.00000     0.00000    -0.00000    -0.00000
   7      -0.00000    -0.00000    -0.00000     0.05158    -0.05964     0.06465
   8       0.00000    -0.00000    -0.00000     0.02433     0.08170     0.05596
   9      -0.00000    -0.00000     0.00000    -0.08453    -0.01288     0.05556
  10       0.00000    -0.00000    -0.00000    -0.00000    -0.00000     0.00000
  11       0.00000     0.00000     0.00000    -0.00000     0.00000     0.00000
  12       0.00000    -0.00000     0.00000     0.00000    -0.00000     0.00000
  13       0.40493    -0.00000    -0.00000    -0.00000     0.00000    -0.00000
  14      -0.00000     0.40493    -0.00000    -0.00000     0.00000    -0.00000
  15      -0.00000    -0.00000     0.40493     0.00000    -0.00000    -0.00000
  16      -0.00000    -0.00000     0.00000     0.55614    -0.00000    -0.00000
  17       0.00000     0.00000    -0.00000    -0.00000     0.55614     0.00000
  18      -0.00000    -0.00000    -0.00000    -0.00000     0.00000     0.55614
  19       0.00000    -0.00000     0.00000    -0.00000     0.00000     0.00000
  20       0.00000     0.00000    -0.00000    -0.08024     0.00853    -0.03306
  21       0.00000    -0.00000    -0.00000    -0.02735     0.03451     0.07527
  22       0.00000     0.00000    -0.00000     0.02045     0.07963    -0.02908
  23       0.00000     0.00000    -0.00000     0.00000    -0.00000     0.00000
  24       0.00000    -0.00000    -0.00000    -0.00000     0.00000     0.00000
  25      -0.00000    -0.00000     0.00000    -0.00000     0.00000     0.00000
  26       0.00000    -0.00000     0.00000     0.00000    -0.00000     0.00000
  27       0.00000    -0.00000    -0.00000    -0.00000     0.00000    -0.00000
  28       0.00000    -0.00000     0.00000     0.00000    -0.00000    -0.00000
  29       0.00000     0.00000    -0.00000     0.00000    -0.00000     0.00000
  30       0.11203     0.05484     0.08712     0.00000     0.00000     0.00000
  31      -0.07951    -0.03569     0.12471    -0.00000     0.00000    -0.00000
  32      -0.06539     0.13736    -0.00238     0.00000     0.00000     0.00000
  33      -0.00000     0.00000    -0.00000     0.00000     0.00000     0.00000
  34      -0.00000     0.00000     0.00000    -0.01701    -0.06905    -0.09218
  35       0.00000    -0.00000     0.00000     0.11091     0.01531    -0.03193
  36       0.00000     0.00000    -0.00000    -0.03106     0.09248    -0.06354
  37       0.00000    -0.00000    -0.00000     0.11843     0.02942     0.03122
  38       0.00000    -0.00000    -0.00000    -0.04136     0.05396     0.10603
  39       0.00000     0.00000    -0.00000    -0.01139     0.10995    -0.06039
  40       0.00000    -0.00000    -0.00000     0.00000     0.00000     0.00000
  41       0.00000    -0.00000    -0.00000     0.00000     0.00000     0.00000
  42       0.02911    -0.00775     0.03859    -0.00000     0.00000     0.00000
  43       0.03855    -0.00411    -0.02990     0.00000    -0.00000    -0.00000
  44       0.00798     0.04817     0.00366     0.00000    -0.00000     0.00000
  45       0.00000     0.00000     0.00000     0.00000     0.00000    -0.00000
  46      -0.00000     0.00000     0.00000     0.02834    -0.05753    -0.06196
  47      -0.00000    -0.00000     0.00000    -0.06760    -0.05466     0.01984
  48       0.00000     0.00000    -0.00000    -0.05078     0.04066    -0.06099
  49       0.00000    -0.00000    -0.00000    -0.00001    -0.00006     0.00007
  50      -0.00000    -0.00000    -0.00000     0.00009     0.00002     0.00002
  51      -0.00000     0.00000     0.00000    -0.00003     0.00007     0.00006
  52      -0.00000     0.00000     0.00000     0.00000    -0.00000    -0.00000
  53       0.00000    -0.00000    -0.00000     0.00000     0.00000     0.00000
  54       0.00000     0.00000    -0.00000     0.00000     0.00000    -0.00000
  55      -0.00000    -0.00000    -0.00000    -0.00000    -0.00000     0.00000
  56      -0.00000    -0.00000     0.00000     0.00484    -0.02746     0.01064
  57      -0.00000     0.00000     0.00000     0.00985    -0.00865    -0.02681
  58       0.00000    -0.00000    -0.00000     0.02775     0.00786     0.00766
  59      -0.00000    -0.00000    -0.00000     0.00000    -0.00000    -0.00000

           19          20          21          22          23          24  
       ----------- ----------- ----------- ----------- ----------- -----------
   1      -0.05406     0.00000     0.00000    -0.00000    -0.00000     0.00000
   2      -0.00000     0.00944     0.00836     0.06665    -0.00000     0.00000
   3      -0.00000    -0.05878    -0.03155     0.01228    -0.00000    -0.00000
   4       0.00000    -0.03252     0.05946    -0.00286    -0.00000     0.00000
   5       0.35816    -0.00000    -0.00000     0.00000    -0.00000    -0.00000
   6      -0.00000    -0.00000     0.00000     0.00000    -0.00000     0.00000
   7       0.00000     0.11532    -0.02376     0.09474    -0.00000    -0.00000
   8       0.00000     0.05277    -0.10820    -0.09137    -0.00000    -0.00000
   9      -0.00000    -0.08219    -0.10280     0.07427    -0.00000    -0.00000
  10       0.00000     0.00000    -0.00000     0.00000     0.00000     0.00000
  11       0.00000    -0.00000    -0.00000     0.00000     0.00000    -0.00000
  12       0.00000    -0.00000    -0.00000    -0.00000    -0.00000    -0.00000
  13       0.00000     0.00000     0.00000     0.00000     0.00000     0.00000
  14      -0.00000     0.00000    -0.00000     0.00000     0.00000    -0.00000
  15       0.00000    -0.00000    -0.00000    -0.00000    -0.00000    -0.00000
  16      -0.00000    -0.08024    -0.02735     0.02045     0.00000    -0.00000
  17       0.00000     0.00853     0.03451     0.07963    -0.00000     0.00000
  18       0.00000    -0.03306     0.07527    -0.02908     0.00000     0.00000
  19       0.26342     0.00000    -0.00000     0.00000    -0.00000    -0.00000
  20       0.00000     0.23019    -0.00000     0.00000     0.00000     0.00000
  21      -0.00000    -0.00000     0.23019     0.00000    -0.00000    -0.00000
  22       0.00000     0.00000     0.00000     0.23019     0.00000    -0.00000
  23      -0.00000     0.00000    -0.00000     0.00000     0.40493    -0.00000
  24      -0.00000     0.00000    -0.00000    -0.00000    -0.00000     0.40493
  25       0.00000    -0.00000    -0.00000     0.00000     0.00000     0.00000
  26       0.39282     0.00000    -0.00000     0.00000     0.00000     0.00000
  27       0.00000    -0.00000    -0.00000     0.00000    -0.00000     0.00000
  28      -0.00000    -0.00000     0.00000     0.00000     0.00000    -0.00000
  29      -0.00000    -0.00000    -0.00000    -0.00000    -0.00000     0.00000
  30      -0.00000     0.00000     0.00000    -0.00000    -0.00000    -0.00000
  31      -0.00000     0.00000    -0.00000     0.00000    -0.00000     0.00000
  32      -0.00000     0.00000    -0.00000     0.00000     0.00000     0.00000
  33       0.01705    -0.00000    -0.00000     0.00000    -0.00000    -0.00000
  34      -0.00000     0.05467    -0.12662    -0.04526    -0.00000    -0.00000
  35      -0.00000    -0.11027    -0.07017     0.06313    -0.00000    -0.00000
  36       0.00000     0.07695    -0.01061     0.12262     0.00000    -0.00000
  37      -0.00000     0.00372    -0.00005    -0.00140    -0.00000    -0.00000
  38       0.00000    -0.00010    -0.00397    -0.00013     0.00000    -0.00000
  39      -0.00000    -0.00139     0.00016    -0.00372    -0.00000    -0.00000
  40       0.00000     0.00000    -0.00000    -0.00000     0.14567     0.04393
  41      -0.00000     0.00000    -0.00000    -0.00000    -0.04393     0.14567
  42       0.00000     0.00000     0.00000    -0.00000    -0.00000    -0.00000
  43       0.00000    -0.00000    -0.00000    -0.00000     0.00000    -0.00000
  44      -0.00000     0.00000     0.00000    -0.00000    -0.00000     0.00000
  45       0.30395     0.00000    -0.00000    -0.00000     0.00000     0.00000
  46       0.00000     0.00205     0.02124     0.00630     0.00000     0.00000
  47       0.00000    -0.01231    -0.00416     0.01806     0.00000     0.00000
  48       0.00000    -0.01842     0.00515    -0.01137     0.00000    -0.00000
  49      -0.00000     0.00759    -0.01076     0.02198    -0.00000    -0.00000
  50      -0.00000     0.02423     0.00011    -0.00832    -0.00000    -0.00000
  51      -0.00000    -0.00340    -0.02325    -0.01021    -0.00000    -0.00000
  52       0.00000    -0.00000     0.00000     0.00000     0.03188    -0.03716
  53      -0.00000     0.00000    -0.00000    -0.00000     0.03716     0.03188
  54      -0.07621    -0.00000     0.00000    -0.00000    -0.00000     0.00000
  55       0.09034     0.00000    -0.00000     0.00000    -0.00000    -0.00000
  56      -0.00000     0.00077     0.00022     0.00189    -0.00000     0.00000
  57      -0.00000    -0.00002     0.00204    -0.00023     0.00000     0.00000
  58      -0.00000     0.00190    -0.00007    -0.00076    -0.00000    -0.00000
  59       0.01439     0.00000    -0.00000    -0.00000     0.00000     0.00000

           25          26          27          28          29          30  
       ----------- ----------- ----------- ----------- ----------- -----------
   1      -0.00000    -0.36999    -0.00000    -0.00000    -0.00000     0.00000
   2      -0.00000    -0.00000     0.00000    -0.00000    -0.00000    -0.00000
   3       0.00000    -0.00000    -0.00000    -0.00000     0.00000     0.00000
   4       0.00000     0.00000     0.00000    -0.00000     0.00000    -0.00000
   5      -0.00000     0.79539    -0.00000     0.00000     0.00000    -0.00000
   6       0.19203     0.00000     0.00000     0.00000    -0.00000    -0.00000
   7      -0.00000     0.00000     0.00000    -0.00000     0.00000    -0.00000
   8       0.00000     0.00000     0.00000    -0.00000     0.00000    -0.00000
   9      -0.00000    -0.00000     0.00000    -0.00000     0.00000    -0.00000
  10       0.00000    -0.00000    -0.09934     0.16043    -0.03560    -0.00000
  11       0.00000     0.00000    -0.16426    -0.09824     0.01562    -0.00000
  12      -0.00000    -0.00000     0.00517    -0.03853    -0.18805     0.00000
  13      -0.00000     0.00000     0.00000     0.00000     0.00000     0.11203
  14      -0.00000    -0.00000    -0.00000    -0.00000     0.00000     0.05484
  15       0.00000     0.00000    -0.00000     0.00000    -0.00000     0.08712
  16      -0.00000     0.00000    -0.00000     0.00000     0.00000     0.00000
  17       0.00000    -0.00000     0.00000    -0.00000    -0.00000     0.00000
  18       0.00000     0.00000    -0.00000    -0.00000     0.00000     0.00000
  19       0.00000     0.39282     0.00000    -0.00000    -0.00000    -0.00000
  20      -0.00000     0.00000    -0.00000    -0.00000    -0.00000     0.00000
  21      -0.00000    -0.00000    -0.00000     0.00000    -0.00000     0.00000
  22       0.00000     0.00000     0.00000     0.00000    -0.00000    -0.00000
  23       0.00000     0.00000    -0.00000     0.00000    -0.00000    -0.00000
  24       0.00000     0.00000     0.00000    -0.00000     0.00000    -0.00000
  25       0.36442     0.00000    -0.00000    -0.00000     0.00000     0.00000
  26       0.00000     0.98911     0.00000     0.00000    -0.00000     0.00000
  27      -0.00000     0.00000     0.36442     0.00000     0.00000     0.00000
  28      -0.00000     0.00000    -0.00000     0.36442    -0.00000    -0.00000
  29       0.00000    -0.00000     0.00000    -0.00000     0.36442    -0.00000
  30       0.00000     0.00000     0.00000    -0.00000    -0.00000     0.21267
  31       0.00000     0.00000     0.00000     0.00000     0.00000     0.00000
  32       0.00000    -0.00000     0.00000    -0.00000    -0.00000    -0.00000
  33       0.00000     0.20092     0.00000    -0.00000     0.00000     0.00000
  34       0.00000     0.00000     0.00000    -0.00000     0.00000     0.00000
  35      -0.00000     0.00000     0.00000     0.00000     0.00000     0.00000
  36       0.00000     0.00000     0.00000    -0.00000    -0.00000     0.00000
  37      -0.00000    -0.00000    -0.00000    -0.00000     0.00000     0.00000
  38      -0.00000     0.00000     0.00000    -0.00000    -0.00000    -0.00000
  39       0.00000    -0.00000     0.00000     0.00000     0.00000     0.00000
  40      -0.00000    -0.00000     0.00000     0.00000     0.00000     0.00000
  41       0.00000     0.00000    -0.00000     0.00000    -0.00000     0.00000
  42       0.00000    -0.00000    -0.00000     0.00000     0.00000     0.08586
  43      -0.00000     0.00000     0.00000     0.00000     0.00000     0.02060
  44       0.00000     0.00000    -0.00000     0.00000     0.00000     0.05338
  45       0.00000     2.15654     0.00000     0.00000    -0.00000     0.00000
  46       0.00000     0.00000    -0.00000     0.00000    -0.00000     0.00000
  47      -0.00000    -0.00000     0.00000    -0.00000     0.00000     0.00000
  48      -0.00000     0.00000     0.00000     0.00000    -0.00000    -0.00000
  49      -0.00000    -0.00000     0.00000     0.00000     0.00000     0.00000
  50       0.00000     0.00000    -0.00000     0.00000     0.00000     0.00000
  51      -0.00000     0.00000    -0.00000    -0.00000     0.00000    -0.00000
  52      -0.00000    -0.00000     0.00000     0.00000     0.00000    -0.00000
  53      -0.00000    -0.00000    -0.00000     0.00000    -0.00000     0.00000
  54      -0.00000    -0.43171    -0.00000    -0.00000    -0.00000     0.00000
  55      -0.00000     0.48369     0.00000     0.00000    -0.00000     0.00000
  56      -0.00000    -0.00000    -0.00000    -0.00000     0.00000     0.00000
  57      -0.00000    -0.00000    -0.00000     0.00000    -0.00000     0.00000
  58      -0.00000    -0.00000    -0.00000    -0.00000     0.00000     0.00000
  59      -0.00000     0.05136     0.00000     0.00000    -0.00000     0.00000

           31          32          33          34          35          36  
       ----------- ----------- ----------- ----------- ----------- -----------
   1      -0.00000     0.00000    -0.21415    -0.00000    -0.00000    -0.00000
   2       0.00000     0.00000    -0.00000    -0.02550     0.01848     0.06311
   3      -0.00000    -0.00000    -0.00000     0.00162     0.06784    -0.01921
   4       0.00000     0.00000     0.00000    -0.06574    -0.00549    -0.02495
   5      -0.00000    -0.00000     0.25764    -0.00000     0.00000    -0.00000
   6      -0.00000     0.00000     0.00000     0.00000     0.00000     0.00000
   7       0.00000    -0.00000     0.00000    -0.00318     0.00321    -0.01315
   8      -0.00000     0.00000     0.00000    -0.01313     0.00253     0.00380
   9       0.00000     0.00000    -0.00000    -0.00327    -0.01329    -0.00245
  10      -0.00000    -0.00000    -0.00000    -0.00000    -0.00000     0.00000
  11      -0.00000    -0.00000    -0.00000    -0.00000     0.00000     0.00000
  12      -0.00000     0.00000    -0.00000    -0.00000     0.00000     0.00000
  13      -0.07951    -0.06539    -0.00000    -0.00000     0.00000     0.00000
  14      -0.03569     0.13736     0.00000     0.00000    -0.00000     0.00000
  15       0.12471    -0.00238    -0.00000     0.00000     0.00000    -0.00000
  16      -0.00000     0.00000     0.00000    -0.01701     0.11091    -0.03106
  17       0.00000     0.00000     0.00000    -0.06905     0.01531     0.09248
  18      -0.00000     0.00000     0.00000    -0.09218    -0.03193    -0.06354
  19      -0.00000    -0.00000     0.01705    -0.00000    -0.00000     0.00000
  20       0.00000     0.00000    -0.00000     0.05467    -0.11027     0.07695
  21      -0.00000    -0.00000    -0.00000    -0.12662    -0.07017    -0.01061
  22       0.00000     0.00000     0.00000    -0.04526     0.06313     0.12262
  23      -0.00000     0.00000    -0.00000    -0.00000    -0.00000     0.00000
  24       0.00000     0.00000    -0.00000    -0.00000    -0.00000    -0.00000
  25       0.00000     0.00000     0.00000     0.00000    -0.00000     0.00000
  26       0.00000    -0.00000     0.20092     0.00000     0.00000     0.00000
  27       0.00000     0.00000     0.00000     0.00000     0.00000     0.00000
  28       0.00000    -0.00000    -0.00000    -0.00000     0.00000    -0.00000
  29       0.00000    -0.00000     0.00000     0.00000     0.00000    -0.00000
  30       0.00000    -0.00000     0.00000     0.00000     0.00000     0.00000
  31       0.21267    -0.00000    -0.00000    -0.00000    -0.00000     0.00000
  32      -0.00000     0.21267     0.00000     0.00000    -0.00000     0.00000
  33      -0.00000     0.00000     0.12513    -0.00000     0.00000    -0.00000
  34      -0.00000     0.00000    -0.00000     0.25329     0.00000     0.00000
  35      -0.00000    -0.00000     0.00000     0.00000     0.25329     0.00000
  36       0.00000     0.00000    -0.00000     0.00000     0.00000     0.25329
  37      -0.00000    -0.00000     0.00000    -0.03616     0.06574    -0.01536
  38      -0.00000    -0.00000     0.00000    -0.06683    -0.03733    -0.00242
  39       0.00000    -0.00000    -0.00000    -0.00956     0.01226     0.07499
  40       0.00000    -0.00000    -0.00000    -0.00000     0.00000     0.00000
  41       0.00000    -0.00000     0.00000     0.00000    -0.00000    -0.00000
  42       0.03844    -0.04239    -0.00000    -0.00000    -0.00000    -0.00000
  43      -0.09208    -0.04176     0.00000     0.00000     0.00000     0.00000
  44      -0.02629     0.08430     0.00000     0.00000     0.00000    -0.00000
  45      -0.00000    -0.00000     2.36870     0.00000    -0.00000     0.00000
  46      -0.00000    -0.00000     0.00000    -0.04189    -0.01931     0.01031
  47       0.00000     0.00000     0.00000    -0.01409     0.04082     0.01920
  48      -0.00000    -0.00000     0.00000    -0.01674     0.01394    -0.04194
  49       0.00000     0.00000    -0.00000     0.02501     0.04169     0.10836
  50      -0.00000     0.00000    -0.00000     0.05389    -0.10236     0.02694
  51       0.00000     0.00000     0.00000     0.10284     0.04349    -0.04047
  52      -0.00000     0.00000    -0.00000    -0.00000     0.00000     0.00000
  53       0.00000    -0.00000    -0.00000     0.00000    -0.00000     0.00000
  54      -0.00000     0.00000    -0.36344    -0.00000     0.00000    -0.00000
  55       0.00000     0.00000     0.52477     0.00000    -0.00000     0.00000
  56      -0.00000     0.00000    -0.00000     0.00851    -0.00227    -0.03439
  57       0.00000     0.00000    -0.00000     0.02964     0.01855     0.00611
  58       0.00000     0.00000    -0.00000    -0.01758     0.03018    -0.00635
  59      -0.00000     0.00000     0.06125    -0.00000    -0.00000     0.00000

           37          38          39          40          41          42  
       ----------- ----------- ----------- ----------- ----------- -----------
   1       0.00000    -0.00000     0.00000    -0.00000     0.00000     0.00000
   2      -0.01103    -0.00814    -0.04916    -0.00000     0.00000    -0.00000
   3      -0.04437     0.02451     0.00590    -0.00000    -0.00000    -0.00000
   4      -0.02267    -0.04402     0.01238    -0.00000     0.00000     0.00000
   5       0.00000     0.00000    -0.00000     0.00000    -0.00000     0.00000
   6       0.00000     0.00000    -0.00000    -0.00000     0.00000    -0.00000
   7      -0.01860    -0.00439     0.03225    -0.00000    -0.00000     0.00000
   8      -0.02052    -0.02725    -0.01554    -0.00000     0.00000    -0.00000
   9       0.02526    -0.02537     0.01111     0.00000    -0.00000    -0.00000
  10      -0.00000     0.00000     0.00000     0.00000     0.00000    -0.00000
  11      -0.00000     0.00000     0.00000    -0.00000     0.00000    -0.00000
  12       0.00000    -0.00000     0.00000    -0.00000    -0.00000    -0.00000
  13       0.00000     0.00000     0.00000     0.00000     0.00000     0.02911
  14      -0.00000    -0.00000     0.00000    -0.00000    -0.00000    -0.00775
  15      -0.00000    -0.00000    -0.00000    -0.00000    -0.00000     0.03859
  16       0.11843    -0.04136    -0.01139     0.00000     0.00000    -0.00000
  17       0.02942     0.05396     0.10995     0.00000     0.00000     0.00000
  18       0.03122     0.10603    -0.06039     0.00000     0.00000     0.00000
  19      -0.00000     0.00000    -0.00000     0.00000     0.00000     0.00000
  20       0.00372    -0.00010    -0.00139     0.00000     0.00000     0.00000
  21      -0.00005    -0.00397     0.00016    -0.00000    -0.00000     0.00000
  22      -0.00140    -0.00013    -0.00372    -0.00000    -0.00000    -0.00000
  23      -0.00000     0.00000    -0.00000     0.14567    -0.04393    -0.00000
  24      -0.00000    -0.00000    -0.00000     0.04393     0.14567    -0.00000
  25      -0.00000    -0.00000     0.00000    -0.00000     0.00000     0.00000
  26      -0.00000     0.00000    -0.00000    -0.00000     0.00000    -0.00000
  27      -0.00000     0.00000     0.00000     0.00000    -0.00000    -0.00000
  28      -0.00000    -0.00000     0.00000     0.00000     0.00000     0.00000
  29       0.00000    -0.00000     0.00000     0.00000    -0.00000     0.00000
  30       0.00000    -0.00000     0.00000     0.00000     0.00000     0.08586
  31      -0.00000    -0.00000     0.00000     0.00000     0.00000     0.03844
  32      -0.00000    -0.00000    -0.00000    -0.00000    -0.00000    -0.04239
  33       0.00000     0.00000    -0.00000    -0.00000     0.00000    -0.00000
  34      -0.03616    -0.06683    -0.00956    -0.00000     0.00000    -0.00000
  35       0.06574    -0.03733     0.01226     0.00000    -0.00000    -0.00000
  36      -0.01536    -0.00242     0.07499     0.00000    -0.00000    -0.00000
  37       0.28377    -0.00000    -0.00000     0.00000    -0.00000     0.00000
  38      -0.00000     0.28377     0.00000     0.00000    -0.00000     0.00000
  39      -0.00000     0.00000     0.28377     0.00000     0.00000     0.00000
  40       0.00000     0.00000     0.00000     0.21267     0.00000    -0.00000
  41      -0.00000    -0.00000     0.00000     0.00000     0.21267    -0.00000
  42       0.00000     0.00000     0.00000    -0.00000    -0.00000     0.14813
  43       0.00000     0.00000    -0.00000     0.00000    -0.00000     0.00000
  44       0.00000    -0.00000     0.00000    -0.00000     0.00000     0.00000
[...]
  27      -0.00000     0.00000    -0.00000     0.00000     0.00000    -0.00000
  28       0.00000    -0.00000    -0.00000    -0.00000     0.00000     0.00000
  29       0.00000    -0.00000     0.00000    -0.00000    -0.00000     0.00000
  30       0.00000     0.00000     0.00000    -0.00000    -0.00000    -0.00000
  31      -0.00000    -0.00000     0.00000     0.00000    -0.00000     0.00000
  32      -0.00000    -0.00000    -0.00000     0.00000    -0.00000     0.00000
  33       0.00000    -0.00000     0.00000    -0.00000    -0.00000     0.00000
  34       0.00000    -0.00000     0.00000     0.00000    -0.00000     0.00000
  35      -0.00000     0.00000    -0.00000     0.00000     0.00000    -0.00000
  36      -0.00000    -0.00000    -0.00000    -0.00000    -0.00000     0.00000
  37       0.00000    -0.00000     0.00000    -0.00000     0.00000     0.00000
  38       0.00000     0.00000     0.00000    -0.00000    -0.00000    -0.00000
  39       0.00000    -0.00000     0.00000    -0.00000    -0.00000     0.00000
  40       0.01323    -1.29342    -0.87395    -0.00007     0.00000     0.00020
  41      -0.00301    -1.31064     1.93999     2.13361    -0.01810     2.14184
  42       2.34150     0.01475     0.01360     0.02502     3.02288     0.00062
  43      -0.01984     1.93973     1.31087     2.14157    -0.01729    -2.13389
  44      -0.00042    -0.00000    -0.00000     0.00000     0.00000     0.00000
  45      -0.01984     1.94053     1.31098    -2.14137     0.01729     2.13329
  46       0.00201     0.87399    -1.29346    -0.00007     0.00000    -0.00020
  47       2.34151     0.01475     0.01360    -0.02502    -3.02287    -0.00062
  48      -0.00301    -1.31134     1.94039    -2.13341     0.01809    -2.14124
  49      -1.56100    -0.00984    -0.00907    -0.00000    -0.00000    -0.00000
  50      -0.00852     0.83331     0.56305     0.00004    -0.00000    -0.00013
  51       0.00194     0.84440    -1.24986    -1.37461     0.01166    -1.37991
  52      -1.50854    -0.00950    -0.00876    -0.01612    -1.94753    -0.00040
  53       0.01278    -1.24970    -0.84455    -1.37974     0.01114     1.37479
  54       0.00027     0.00000     0.00000    -0.00000    -0.00000    -0.00000
  55       0.01278    -1.25022    -0.84462     1.37961    -0.01114    -1.37440
  56      -0.00129    -0.56308     0.83333     0.00004    -0.00000     0.00013
  57      -1.50855    -0.00951    -0.00876     0.01612     1.94753     0.00040
  58       0.00194     0.84485    -1.25012     1.37448    -0.01166     1.37953
  59       1.00570     0.00634     0.00584     0.00000     0.00000     0.00000

           55          56          57          58          59  
       ----------- ----------- ----------- ----------- -----------
   1       0.24351    -0.00000     0.00000     0.00000     1.00580
   2       2.91620    -0.00000     0.00000     0.00000     6.32812
   3      13.12975    -0.00000     0.00000     0.00000    16.01355
   4      -1.73967     0.00000    -0.00000    -0.00000    -6.53408
   5      -9.01877     0.00000    -0.00000    -0.00000    -3.70505
   6      -0.64829     0.00000    -0.00000    -0.00000    -0.35264
   7       0.00000     2.25758    -0.03013     2.18752    -0.00000
   8      -0.00000    -2.18773    -0.02798     2.25741     0.00000
   9       0.00000     0.00216     3.14343     0.04106    -0.00000
  10       0.00000     4.69562    -0.06267     4.54989    -0.00000
  11      -0.00000    -4.55032    -0.05821     4.69526     0.00000
  12       0.00000     0.00450     6.53812     0.08541    -0.00000
  13      -0.00000    -4.40972     0.05885    -4.27287    -0.00000
  14       0.00000     4.27327     0.05466    -4.40939     0.00000
  15      -0.00000    -0.00422    -6.14004    -0.08021     0.00000
  16       0.00000     0.97287    -0.01298     0.94268     0.00000
  17      -0.00000    -0.94277    -0.01206     0.97279    -0.00000
  18       0.00000     0.00093     1.35461     0.01770    -0.00000
  19      -0.00000    -0.26965     0.00360    -0.26128    -0.00000
  20       0.00000     0.26131     0.00334    -0.26963     0.00000
  21      -0.00000    -0.00026    -0.37546    -0.00490     0.00000
  22      -3.56880     0.00000    -0.00000    -0.00000    -4.31890
  23      -0.00000     0.00000    -0.00000    -0.00000    -0.00000
  24       0.00000    -0.00000    -0.00000    -0.00000     0.00000
  25      -3.56880     0.00000    -0.00000    -0.00000    -4.31890
  26       0.00000     0.00000     0.00000     0.00000    -0.00000
  27      -3.56880     0.00000    -0.00000    -0.00000    -4.31890
  28       1.05986    -0.00000     0.00000     0.00000    -1.04905
  29       0.00000    -0.00000     0.00000     0.00000     0.00000
  30       0.00000     0.00000     0.00000     0.00000    -0.00000
  31       1.05986    -0.00000     0.00000     0.00000    -1.04905
  32      -0.00000    -0.00000    -0.00000    -0.00000     0.00000
  33       1.05986    -0.00000     0.00000     0.00000    -1.04905
  34       1.49274    -0.00000     0.00000     0.00000     0.69920
  35      -0.00000     0.00000    -0.00000    -0.00000    -0.00000
  36       0.00000    -0.00000    -0.00000    -0.00000     0.00000
  37       1.49274    -0.00000     0.00000     0.00000     0.69920
  38       0.00000     0.00000     0.00000     0.00000    -0.00000
  39       1.49274    -0.00000     0.00000     0.00000     0.69920
  40      -0.00000    -2.84742     0.03800    -2.75905     0.00000
  41       0.00000     2.75931     0.03530    -2.84720    -0.00000
  42      -0.00000    -0.00273    -3.96471    -0.05179     0.00000
  43      -0.00000    -2.84742     0.03800    -2.75905     0.00000
  44       0.00000    -0.00000    -0.00000    -0.00000     0.00000
  45      -0.00000    -2.84742     0.03800    -2.75905     0.00000
  46       0.00000     2.75931     0.03530    -2.84720    -0.00000
  47      -0.00000    -0.00273    -3.96471    -0.05179     0.00000
  48       0.00000     2.75931     0.03530    -2.84720    -0.00000
  49      -0.00000    -0.00273    -3.96471    -0.05179     0.00000
  50       0.00000     2.58216    -0.03446     2.50203    -0.00000
  51      -0.00000    -2.50226    -0.03201     2.58197     0.00000
  52       0.00000     0.00247     3.59537     0.04697    -0.00000
  53       0.00000     2.58216    -0.03446     2.50203    -0.00000
  54      -0.00000    -0.00000     0.00000     0.00000    -0.00000
  55       0.00000     2.58216    -0.03446     2.50203    -0.00000
  56      -0.00000    -2.50226    -0.03201     2.58196     0.00000
  57       0.00000     0.00247     3.59537     0.04697    -0.00000
  58      -0.00000    -2.50226    -0.03201     2.58197     0.00000
  59       0.00000     0.00247     3.59537     0.04697    -0.00000
  int_init: cando_txs set to always be  F
                                NWChem TDDFT Module
                                -------------------


            General Information
            -------------------
           No. of orbitals :     118
            Alpha orbitals :      59
             Beta orbitals :      59
        Alpha frozen cores :       0
         Beta frozen cores :       0
     Alpha frozen virtuals :       0
      Beta frozen virtuals :       0
         Spin multiplicity :       2
    Number of AO functions :      59
        Use of symmetry is : off
      Symmetry adaption is : off
         Schwarz screening :  0.10D-07

              XC Information
              --------------
              Hartree-Fock (Exact) Exchange   1.00          
              LC-wPBE(h)Exchange Functional   1.00          
     Perdew 1991 LDA Correlation Functional   1.00 local    
    PerdewBurkeErnz. Correlation Functional   1.00 non-local
           Alpha           :  0.00
           Beta            :  1.00
           Gamma           :  0.22

             TDDFT Information
             -----------------
          Calculation type : TDDFT             
         Wavefunction type : Unrestricted
          No. of electrons :      11
           Alpha electrons :       6
            Beta electrons :       5
              No. of roots :       5
          Max subspacesize :    5000
            Max iterations :     100
               Target root :       1
           Target symmetry : none
      Symmetry restriction : off
                 Algorithm : Optimal
        Davidson threshold :  0.10D-03

            Memory Information
            ------------------
          Available GA space size is       52428793038 doubles
          Available MA space size is        4194414796 doubles
          Length of a trial vector is          318     270
          Algorithm : Incore multiple tensor contraction
          Estimated peak GA usage is          12350688 doubles
          Estimated peak MA usage is             18000 doubles

    5 smallest eigenvalue differences (eV) 
--------------------------------------------------------
  No. Spin  Occ  Vir  Irrep   E(Occ)    E(Vir)   E(Diff)
--------------------------------------------------------
    1    1    6    7 a        -0.188     0.009     5.363
    2    1    6    8 a        -0.188     0.009     5.363
    3    1    6    9 a        -0.188     0.009     5.363
    4    1    6   10 a        -0.188     0.012     5.444
    5    1    6   11 a        -0.188     0.028     5.876
--------------------------------------------------------

  Entering Davidson iterations
  Unrestricted

  Iter   NTrls   NConv    DeltaV     DeltaE      Time   
  ----  ------  ------  ---------  ---------  --------- 
    1      5       0     0.39E-01   0.10+100        3.1
    2     15       0     0.17E-01   0.29E-01        5.0
    3     25       0     0.83E-02   0.30E-02        5.0
    4     35       2     0.10E-02   0.75E-04        5.0
    5     41       5     0.41E-04   0.30E-06        3.5
  ----  ------  ------  ---------  ---------  --------- 
  Convergence criterion met

  Ground state a        -162.176175236725 a.u.
  <S2> =   0.7500

  ----------------------------------------------------------------------------
  Root   1         a              0.075926688 a.u.                2.0661 eV 
  <S2> =   0.7500
  ----------------------------------------------------------------------------
     Transition Moments    X -2.53150   Y  0.04228   Z  0.05987
     Transition Moments   XX -0.00000  XY  0.00000  XZ -0.00000
     Transition Moments   YY -0.00000  YZ  0.00000  ZZ -0.00000
     Dipole Oscillator Strength                    0.3246567937
     Electric Quadrupole                           0.0000000000
     Magnetic Dipole                               0.0000000000
     Total Oscillator Strength                     0.3246567937

     Occ.    6 alpha a   ---  Virt.    7 alpha a    0.69116 X
     Occ.    6 alpha a   ---  Virt.    8 alpha a   -0.06732 X
     Occ.    6 alpha a   ---  Virt.   11 alpha a    0.66616 X
     Occ.    6 alpha a   ---  Virt.   20 alpha a    0.26423 X
     Occ.    6 alpha a   ---  Virt.   29 alpha a   -0.05338 X
  ----------------------------------------------------------------------------
  Root   2         a              0.075926689 a.u.                2.0661 eV 
  <S2> =   0.7500
  ----------------------------------------------------------------------------
     Transition Moments    X  0.02563   Y  2.44878   Z -0.64554
     Transition Moments   XX -0.00000  XY  0.00000  XZ  0.00000
     Transition Moments   YY -0.00000  YZ  0.00000  ZZ -0.00000
     Dipole Oscillator Strength                    0.3246571301
     Electric Quadrupole                           0.0000000000
     Magnetic Dipole                               0.0000000000
     Total Oscillator Strength                     0.3246571301

     Occ.    6 alpha a   ---  Virt.    7 alpha a   -0.06968 X
     Occ.    6 alpha a   ---  Virt.    8 alpha a   -0.69082 X
     Occ.    6 alpha a   ---  Virt.   12 alpha a    0.18803 X
     Occ.    6 alpha a   ---  Virt.   13 alpha a   -0.63907 X
     Occ.    6 alpha a   ---  Virt.   21 alpha a   -0.23494 X
     Occ.    6 alpha a   ---  Virt.   22 alpha a    0.12101 X
     Occ.    6 alpha a   ---  Virt.   31 alpha a    0.05275 X
  ----------------------------------------------------------------------------
  Root   3         a              0.075926689 a.u.                2.0661 eV 
  <S2> =   0.7500
  ----------------------------------------------------------------------------
     Transition Moments    X  0.06866   Y  0.64467   Z  2.44818
     Transition Moments   XX -0.00000  XY  0.00000  XZ -0.00000
     Transition Moments   YY -0.00000  YZ  0.00000  ZZ -0.00000
     Dipole Oscillator Strength                    0.3246571301
     Electric Quadrupole                           0.0000000000
     Magnetic Dipole                               0.0000000000
     Total Oscillator Strength                     0.3246571301

     Occ.    6 alpha a   ---  Virt.    9 alpha a   -0.69318 X
     Occ.    6 alpha a   ---  Virt.   12 alpha a   -0.63907 X
     Occ.    6 alpha a   ---  Virt.   13 alpha a   -0.18803 X
     Occ.    6 alpha a   ---  Virt.   21 alpha a   -0.12101 X
     Occ.    6 alpha a   ---  Virt.   22 alpha a   -0.23489 X
     Occ.    6 alpha a   ---  Virt.   30 alpha a    0.05274 X
  ----------------------------------------------------------------------------
  Root   4         a              0.118158357 a.u.                3.2153 eV 
  <S2> =   0.7500
  ----------------------------------------------------------------------------
     Transition Moments    X  0.00000   Y  0.00000   Z -0.00000
     Transition Moments   XX  4.66608  XY -0.00000  XZ  0.00000
     Transition Moments   YY  4.66608  YZ -0.00000  ZZ  4.66608
     Dipole Oscillator Strength                    0.0000000000
     Electric Quadrupole                           0.0000000000
     Magnetic Dipole                               0.0000000000
     Total Oscillator Strength                     0.0000000000

     Occ.    6 alpha a   ---  Virt.   10 alpha a   -0.87085 X
     Occ.    6 alpha a   ---  Virt.   14 alpha a    0.47970 X
     Occ.    6 alpha a   ---  Virt.   23 alpha a   -0.10589 X
  ----------------------------------------------------------------------------
  Root   5         a              0.136335313 a.u.                3.7099 eV 
  <S2> =   0.7500
  ----------------------------------------------------------------------------
     Transition Moments    X -0.20578   Y  0.00344   Z  0.00487
     Transition Moments   XX -0.00000  XY  0.00000  XZ -0.00000
     Transition Moments   YY -0.00000  YZ  0.00000  ZZ -0.00000
     Dipole Oscillator Strength                    0.0038520287
     Electric Quadrupole                           0.0000000000
     Magnetic Dipole                               0.0000000000
     Total Oscillator Strength                     0.0038520287

     Occ.    6 alpha a   ---  Virt.    7 alpha a   -0.69641 X
     Occ.    6 alpha a   ---  Virt.    8 alpha a    0.06783 X
     Occ.    6 alpha a   ---  Virt.   11 alpha a    0.54647 X
     Occ.    6 alpha a   ---  Virt.   20 alpha a    0.44864 X
     Occ.    6 alpha a   ---  Virt.   29 alpha a   -0.09345 X

              Target root =      1
          Target symmetry = none
      Ground state energy =   -162.176175236725
        Excitation energy =      0.075926688125
     Excited state energy =   -162.100248548600

  stored tddft:energy   -162.10024854859998     

 Task  times  cpu:       21.7s     wall:       25.6s


                                NWChem Input Module
                                -------------------


 Summary of allocated global arrays
-----------------------------------
  No active global arrays


MA_summarize_allocated_blocks: starting scan ...
heap block 'gridpts', handle 65, address 0x13cf3900:
	type of elements:		double precision
	number of elements:		1048463508
	address of client space:	0x13cf3980
	index for client space:		13386375
	total number of bytes:		8387708200
MA_summarize_allocated_blocks: scan completed: 1 heap block, 0 stack blocks
MA usage statistics:

	allocation statistics:
					      heap	     stack
					      ----	     -----
	current number of blocks	         1	         0
	maximum number of blocks	        18	        54
	current total bytes		8387708200	         0
	maximum total bytes		8388306944	  30773432
	maximum total K-bytes		   8388307	     30774
	maximum total M-bytes		      8389	        31


                                     CITATION
                                     --------
                Please cite the following reference when publishing
                           results obtained with NWChem:

          E. Apra, E. J. Bylaska, W. A. de Jong, N. Govind, K. Kowalski,
       T. P. Straatsma, M. Valiev, H. J. J. van Dam, Y. Alexeev, J. Anchell,
       V. Anisimov, F. W. Aquino, R. Atta-Fynn, J. Autschbach, N. P. Bauman,
     J. C. Becca, D. E. Bernholdt, K. Bhaskaran-Nair, S. Bogatko, P. Borowski,
         J. Boschen, J. Brabec, A. Bruner, E. Cauet, Y. Chen, G. N. Chuev,
      C. J. Cramer, J. Daily, M. J. O. Deegan, T. H. Dunning Jr., M. Dupuis,
   K. G. Dyall, G. I. Fann, S. A. Fischer, A. Fonari, H. Fruchtl, L. Gagliardi,
      J. Garza, N. Gawande, S. Ghosh, K. Glaesemann, A. W. Gotz, J. Hammond,
       V. Helms, E. D. Hermes, K. Hirao, S. Hirata, M. Jacquelin, L. Jensen,
   B. G. Johnson, H. Jonsson, R. A. Kendall, M. Klemm, R. Kobayashi, V. Konkov,
      S. Krishnamoorthy, M. Krishnan, Z. Lin, R. D. Lins, R. J. Littlefield,
      A. J. Logsdail, K. Lopata, W. Ma, A. V. Marenich, J. Martin del Campo,
   D. Mejia-Rodriguez, J. E. Moore, J. M. Mullin, T. Nakajima, D. R. Nascimento,
    J. A. Nichols, P. J. Nichols, J. Nieplocha, A. Otero-de-la-Roza, B. Palmer,
    A. Panyala, T. Pirojsirikul, B. Peng, R. Peverati, J. Pittner, L. Pollack,
   R. M. Richard, P. Sadayappan, G. C. Schatz, W. A. Shelton, D. W. Silverstein,
   D. M. A. Smith, T. A. Soares, D. Song, M. Swart, H. L. Taylor, G. S. Thomas,
            V. Tipparaju, D. G. Truhlar, K. Tsemekhman, T. Van Voorhis,
      A. Vazquez-Mayagoitia, P. Verma, O. Villa, A. Vishnu, K. D. Vogiatzis,
        D. Wang, J. H. Weare, M. J. Williamson, T. L. Windus, K. Wolinski,
        A. T. Wong, Q. Wu, C. Yang, Q. Yu, M. Zacharias, Z. Zhang, Y. Zhao,
                                and R. J. Harrison
                        "NWChem: Past, present, and future
                         J. Chem. Phys. 152, 184102 (2020)
                               doi:10.1063/5.0004997

                                      AUTHORS
                                      -------
  E. Apra, E. J. Bylaska, N. Govind, K. Kowalski, M. Valiev, D. Mejia-Rodriguez,
       A. Kunitsa, N. P. Bauman, A. Panyala, W. A. de Jong, T. P. Straatsma,
   H. J. J. van Dam, D. Wang, T. L. Windus, J. Hammond, J. Autschbach, A. Woods,
    K. Bhaskaran-Nair, J. Brabec, K. Lopata, S. A. Fischer, S. Krishnamoorthy,
     M. Jacquelin, W. Ma, M. Klemm, O. Villa, Y. Chen, V. Anisimov, F. Aquino,
     S. Hirata, M. T. Hackler, E. Hermes, L. Jensen, J. E. Moore, J. C. Becca,
      V. Konjkov, T. Risthaus, M. Malagoli, A. Marenich, A. Otero-de-la-Roza,
        J. Mullin, P. Nichols, R. Peverati, J. Pittner, Y. Zhao, P.-D. Fan,
        A. Fonari, M. J. Williamson, R. J. Harrison, J. R. Rehr, M. Dupuis,
     D. Silverstein, D. M. A. Smith, J. Nieplocha, V. Tipparaju, M. Krishnan,
     B. E. Van Kuiken, A. Vazquez-Mayagoitia, M. Swart, Q. Wu, T. Van Voorhis,
     A. A. Auer, M. Nooijen, L. D. Crosby, E. Brown, G. Cisneros, G. I. Fann,
   H. Fruchtl, J. Garza, K. Hirao, R. A. Kendall, J. A. Nichols, K. Tsemekhman,
    K. Wolinski, J. Anchell, D. E. Bernholdt, P. Borowski, T. Clark, D. Clerc,
   H. Dachsel, M. J. O. Deegan, K. Dyall, D. Elwood, E. Glendening, M. Gutowski,
   A. C. Hess, J. Jaffe, B. G. Johnson, J. Ju, R. Kobayashi, R. Kutteh, Z. Lin,
   R. Littlefield, X. Long, B. Meng, T. Nakajima, S. Niu, L. Pollack, M. Rosing,
   K. Glaesemann, G. Sandrone, M. Stave, H. Taylor, G. Thomas, J. H. van Lenthe,
                               A. T. Wong, Z. Zhang.

 Total times  cpu:       21.8s     wall:       26.0s
