 argument  1 = /home/aditisingh4812/nw_chem/nwchem-run/nwchem-run/tddft/open/open_atom/geom-MOL/o.nw
                                         
                                         


             Northwest Computational Chemistry Package (NWChem) 7.2.3
             --------------------------------------------------------


                    Environmental Molecular Sciences Laboratory
                       Pacific Northwest National Laboratory
                                Richland, WA 99352

                              Copyright (c) 1994-2022
                       Pacific Northwest National Laboratory
                            Battelle Memorial Institute

             NWChem is an open-source computational chemistry package
                        distributed under the terms of the
                      Educational Community License (ECL) 2.0
             A copy of the license is included with this distribution
                              in the LICENSE.TXT file

                                  ACKNOWLEDGMENT
                                  --------------

            This software and its documentation were developed at the
            EMSL at Pacific Northwest National Laboratory, a multiprogram
            national laboratory, operated for the U.S. Department of Energy
            by Battelle under Contract Number DE-AC05-76RL01830. Support
            for this work was provided by the Department of Energy Office
            of Biological and Environmental Research, Office of Basic
            Energy Sciences, and the Office of Advanced Scientific Computing.


           Job information
           ---------------

    hostname        = p16
    program         = /home/aditisingh4812/nw_chem/nwchem-7.2.3-release.revision-d690e065-srconly.2024-08-27/nwchem-7.2.3/bin/LINUX64/nwchem
    date            = Tue Apr 15 00:13:34 2025

    compiled        = Mon_Apr_07_18:51:54_2025
    source          = /home/aditisingh4812/nw_chem/nwchem-7.2.3-release.revision-d690e065-srconly.2024-08-27/nwchem-7.2.3
    nwchem branch   = 7.2.3
    nwchem revision = d690e065
    ga revision     = 5.8.0
    use scalapack   = F
    input           = /home/aditisingh4812/nw_chem/nwchem-run/nwchem-run/tddft/open/open_atom/geom-MOL/o.nw
    prefix          = o.
    data base       = ./o.db
    status          = startup
    nproc           =        8
    time left       =     -1s



           Memory information
           ------------------

    heap     = 2621439998 doubles =  20000.0 Mbytes
    stack    = 2621439995 doubles =  20000.0 Mbytes
    global   = 6553600000 doubles =  50000.0 Mbytes (distinct from heap & stack)
    total    = ********** doubles =  90000.0 Mbytes
    verify   = yes
    hardfail = no 


           Directory information
           ---------------------

  0 permanent = .
  0 scratch   = .




                                NWChem Input Module
                                -------------------



 Scaling coordinates for geometry "geometry" by  1.889725989
 (inverse scale =  0.529177249)



                             Geometry "geometry" -> ""
                             -------------------------

 Output coordinates in angstroms (scale by  1.889725989 to convert to a.u.)

  No.       Tag          Charge          X              Y              Z
 ---- ---------------- ---------- -------------- -------------- --------------
    1 O                    8.0000     0.00000000     0.00000000     0.00000000

      Atomic Mass 
      ----------- 

      O                 15.994910


 Effective nuclear repulsion energy (a.u.)       0.0000000000

            Nuclear Dipole moment (a.u.) 
            ----------------------------
        X                 Y               Z
 ---------------- ---------------- ----------------
     0.0000000000     0.0000000000     0.0000000000


            XYZ format geometry
            -------------------
     1
 geometry
 O                     0.00000000     0.00000000     0.00000000



 Summary of "ao basis" -> "" (cartesian)
 ------------------------------------------------------------------------------
       Tag                 Description            Shells   Functions and Types
 ---------------- ------------------------------  ------  ---------------------
 *                        aug-cc-pVTZ                 on all atoms 


  pbe96 is a nonlocal functional; adding pw91lda local functional. 

                                 NWChem DFT Module
                                 -----------------


                      Basis "ao basis" -> "ao basis" (cartesian)
                      -----
  O (Oxygen)
  ----------
            Exponent  Coefficients 
       -------------- ---------------------------------------------------------
  1 S  1.53300000E+04  0.000508
  1 S  2.29900000E+03  0.003929
  1 S  5.22400000E+02  0.020243
  1 S  1.47300000E+02  0.079181
  1 S  4.75500000E+01  0.230687
  1 S  1.67600000E+01  0.433118
  1 S  6.20700000E+00  0.350260
  1 S  6.88200000E-01 -0.008154

  2 S  1.53300000E+04 -0.000115
  2 S  2.29900000E+03 -0.000895
  2 S  5.22400000E+02 -0.004636
  2 S  1.47300000E+02 -0.018724
  2 S  4.75500000E+01 -0.058463
  2 S  1.67600000E+01 -0.136463
  2 S  6.20700000E+00 -0.175740
  2 S  6.88200000E-01  0.603418

  3 S  1.75200000E+00  1.000000

  4 S  2.38400000E-01  1.000000

  5 S  7.37600000E-02  1.000000

  6 P  3.44600000E+01  0.015928
  6 P  7.74900000E+00  0.099740
  6 P  2.28000000E+00  0.310492

  7 P  7.15600000E-01  1.000000

  8 P  2.14000000E-01  1.000000

  9 P  5.97400000E-02  1.000000

 10 D  2.31400000E+00  1.000000

 11 D  6.45000000E-01  1.000000

 12 D  2.14000000E-01  1.000000

 13 F  1.42800000E+00  1.000000

 14 F  5.00000000E-01  1.000000



 Summary of "ao basis" -> "ao basis" (cartesian)
 ------------------------------------------------------------------------------
       Tag                 Description            Shells   Functions and Types
 ---------------- ------------------------------  ------  ---------------------
 O                        aug-cc-pVTZ               14       55   5s4p3d2f




 Summary of "ao basis" -> "ao basis" (cartesian)
 ------------------------------------------------------------------------------
       Tag                 Description            Shells   Functions and Types
 ---------------- ------------------------------  ------  ---------------------
 O                        aug-cc-pVTZ               14       55   5s4p3d2f




                         Geometry "geometry" -> "geometry"
                         ---------------------------------

 Output coordinates in angstroms (scale by  1.889725989 to convert to a.u.)

  No.       Tag          Charge          X              Y              Z
 ---- ---------------- ---------- -------------- -------------- --------------
    1 O                    8.0000     0.00000000     0.00000000     0.00000000

      Atomic Mass 
      ----------- 

      O                 15.994910


 Effective nuclear repulsion energy (a.u.)       0.0000000000

            Nuclear Dipole moment (a.u.) 
            ----------------------------
        X                 Y               Z
 ---------------- ---------------- ----------------
     0.0000000000     0.0000000000     0.0000000000


                      Basis "ao basis" -> "ao basis" (cartesian)
                      -----
  O (Oxygen)
  ----------
            Exponent  Coefficients 
       -------------- ---------------------------------------------------------
  1 S  1.53300000E+04  0.510782
  1 S  2.29900000E+03  0.952032
  1 S  5.22400000E+02  1.614331
  1 S  1.47300000E+02  2.443365
  1 S  4.75500000E+01  3.048606
  1 S  1.67600000E+01  2.618346
  1 S  6.20700000E+00  1.005234
  1 S  6.88200000E-01 -0.004496

  2 S  1.53300000E+04 -0.193666
  2 S  2.29900000E+03 -0.363225
  2 S  5.22400000E+02 -0.619219
  2 S  1.47300000E+02 -0.967719
  2 S  4.75500000E+01 -1.294024
  2 S  1.67600000E+01 -1.381716
  2 S  6.20700000E+00 -0.844754
  2 S  6.88200000E-01  0.557318

  3 S  1.75200000E+00  1.085327

  4 S  2.38400000E-01  0.243159

  5 S  7.37600000E-02  0.100873

  6 P  3.44600000E+01  4.898875
  6 P  7.74900000E+00  4.750261
  6 P  2.28000000E+00  3.204498

  7 P  7.15600000E-01  0.938162

  8 P  2.14000000E-01  0.207471

  9 P  5.97400000E-02  0.042099

 10 D  2.31400000E+00  7.145709

 11 D  6.45000000E-01  0.764080

 12 D  2.14000000E-01  0.110824

 13 F  1.42800000E+00  3.281655

 14 F  5.00000000E-01  0.309483



    Basis function labels
    ---------------------
       No.  Atm El Type
       ---  --- -- ----
        1    1 O  s          
        2    1 O  s          
        3    1 O  s          
        4    1 O  s          
        5    1 O  s          
        6    1 O  px         
        7    1 O  py         
        8    1 O  pz         
        9    1 O  px         
       10    1 O  py         
       11    1 O  pz         
       12    1 O  px         
       13    1 O  py         
       14    1 O  pz         
       15    1 O  px         
       16    1 O  py         
       17    1 O  pz         
       18    1 O  dxx        
       19    1 O  dxy        
       20    1 O  dxz        
       21    1 O  dyy        
       22    1 O  dyz        
       23    1 O  dzz        
       24    1 O  dxx        
       25    1 O  dxy        
       26    1 O  dxz        
       27    1 O  dyy        
       28    1 O  dyz        
       29    1 O  dzz        
       30    1 O  dxx        
       31    1 O  dxy        
       32    1 O  dxz        
       33    1 O  dyy        
       34    1 O  dyz        
       35    1 O  dzz        
       36    1 O  fxxx       
       37    1 O  fxxy       
       38    1 O  fxxz       
       39    1 O  fxyy       
       40    1 O  fxyz       
       41    1 O  fxzz       
       42    1 O  fyyy       
       43    1 O  fyyz       
       44    1 O  fyzz       
       45    1 O  fzzz       
       46    1 O  fxxx       
       47    1 O  fxxy       
       48    1 O  fxxz       
       49    1 O  fxyy       
       50    1 O  fxyz       
       51    1 O  fxzz       
       52    1 O  fyyy       
       53    1 O  fyyz       
       54    1 O  fyzz       
       55    1 O  fzzz       
  int_init: cando_txs set to always be  F

 Schwarz integral screening summary 
 ---------------------------------- 

        No. of atom pairs =       1
       No. of shell pairs =     105

 Atomic screening 

   value      no.     value      no.     value      no.     value      no.   
  -------- ------    -------- ------    -------- ------    -------- ------   
  0.00D+00      0    1.00D-13      0    1.00D-12      0    1.00D-11      0
  1.00D-10      0    1.00D-09      0    1.00D-08      0    1.00D-07      0
  1.00D-06      0    1.00D-05      0    1.00D-04      0    1.00D-03      0
  1.00D-02      0    1.00D-01      0    1.00D+00      1    1.00D+01      0


 Shell screening 

   value      no.     value      no.     value      no.     value      no.   
  -------- ------    -------- ------    -------- ------    -------- ------   
  0.00D+00      0    1.00D-13      0    1.00D-12      0    1.00D-11      0
  1.00D-10      0    1.00D-09      0    1.00D-08      0    1.00D-07      0
  1.00D-06      0    1.00D-05      0    1.00D-04      0    1.00D-03      0
  1.00D-02      5    1.00D-01     30    1.00D+00     70    1.00D+01      0


  Caching 1-el integrals 
  atom                     1  - neighbor  & S                     1   10.000000000000000       exp AB    5.9740000000000043E-002   5.9740000000000043E-002
 zmins =     0.059740000    0.059740000 lprod =   2 range =        14.43 acc   0.10D-07
 sh     0.000000000
  Center:                     1  Radial Pts. & Wghts. 
    1        0.000003843           1.7022000E-16
    2        0.000030741           4.3576911E-14
    3        0.000103753           1.1168698E-12
    4        0.000245936           1.1156902E-11
    5        0.000480359           6.6508194E-11
    6        0.000830097           2.8602359E-10
    7        0.001318244           9.8193618E-10
    8        0.001967920           2.8586525E-09
    9        0.002802275           7.3377784E-09
   10        0.003844504           1.7055056E-08
   11        0.005117858           3.6582550E-08
   12        0.006645653           7.3437453E-08
   13        0.008451290           1.3944744E-07
   14        0.010558265           2.5255162E-07
   15        0.012990192           4.3912621E-07
   16        0.015770816           7.3693471E-07
   17        0.018924037           1.1988147E-06
   18        0.022473933           1.8972266E-06
   19        0.026444778           2.9298049E-06
   20        0.030861075           4.4260689E-06
   21        0.035747575           6.5554706E-06
   22        0.041129312           9.5369766E-06
   23        0.047031631           1.3650409E-05
   24        0.053480222           1.9249799E-05
   25        0.060501154           2.6779029E-05
   26        0.068120915           3.6790101E-05
   27        0.076366450           4.9964388E-05
   28        0.085265201           6.7137273E-05
   29        0.094845159           8.9326684E-05
   30        0.105134907           1.1776602E-04
   31        0.116163674           1.5394213E-04
   32        0.127961390           1.9963903E-04
   33        0.140558744           2.5698815E-04
   34        0.153987249           3.2852611E-04
   35        0.168279308           4.1726104E-04
   36        0.183468285           5.2674872E-04
   37        0.199588590           6.6117996E-04
   38        0.216675752           8.2548089E-04
   39        0.234766518           1.0254281E-03
   40        0.253898943           1.2677809E-03
   41        0.274112501           1.5604332E-03
   42        0.295448190           1.9125882E-03
   43        0.317948663           2.3349595E-03
   44        0.341658352           2.8400026E-03
   45        0.366623616           3.4421817E-03
   46        0.392892897           4.1582781E-03
   47        0.420516886           5.0077467E-03
   48        0.449548714           6.0131277E-03
   49        0.480044150           7.2005253E-03
   50        0.512061822           8.6001628E-03
   51        0.545663463           1.0247028E-02
   52        0.580914178           1.2181628E-02
   53        0.617882736           1.4450866E-02
   54        0.656641894           1.7109071E-02
   55        0.697268759           2.0219207E-02
   56        0.739845182           2.3854293E-02
   57        0.784458206           2.8099073E-02
   58        0.831200551           3.3051999E-02
   59        0.880171168           3.8827576E-02
   60        0.931475857           4.5559150E-02
   61        0.985227952           5.3402232E-02
   62        1.041549104           6.2538487E-02
   63        1.100570158           7.3180510E-02
   64        1.162432147           8.5577589E-02
   65        1.227287426           1.0002269E-01
   66        1.295300960           1.1686092E-01
   67        1.366651801           1.3649989E-01
   68        1.441534786           1.5942242E-01
   69        1.520162492           1.8620214E-01
   70        1.602767504           2.1752292E-01
   71        1.689605055           2.5420303E-01
   72        1.780956112           2.9722538E-01
   73        1.877130999           3.4777579E-01
   74        1.978473689           4.0729150E-01
   75        2.085366895           4.7752332E-01
   76        2.198238165           5.6061576E-01
   77        2.317567221           6.5921135E-01
   78        2.443894857           7.7658754E-01
   79        2.577833822           9.1683833E-01
   80        2.720082228           1.0851177E+00
   81        2.871440235           1.2879701E+00
   82        3.032831024           1.5337841E+00
   83        3.205327430           1.8334254E+00
   84        3.390186214           2.2011326E+00
   85        3.588892721           2.6558078E+00
   86        3.803219978           3.2229122E+00
   87        4.035308208           3.9373112E+00
   88        4.287773862           4.8476513E+00
   89        4.563862384           6.0232818E+00
   90        4.867667603           7.5655611E+00
   91        5.204455983           9.6270248E+00
   92        5.581162301           1.2445340E+01
   93        6.007178501           1.6406692E+01
   94        6.495672074           2.2171942E+01
   95        7.065927614           3.0948539E+01
   96        7.747842611           4.5140041E+01
   97        8.591503931           7.0127121E+01
   98        9.690807181           1.2021685E+02
   99       11.256551429           2.4582738E+02
  100       13.961379593           7.6403733E+02
     irreducible set of Lebedev Angular points ;
  0.009523809523810  1.000000000000000  0.000000000000000  0.000000000000000
  0.032142857142857  0.577350269189626  0.577350269189626  0.577350269189626
  0.028571428571429  0.459700843380983  0.000000000000000  0.888073833977115
   total no. of   reducible points:  38; test:  1.00000000
  0.012698412698413  1.000000000000000  0.000000000000000  0.000000000000000
  0.022574955908289  0.707106781186547  0.707106781186547  0.000000000000000
  0.021093750000000  0.577350269189626  0.577350269189626  0.577350269189626
  0.020173335537919  0.301511344577764  0.301511344577764  0.904534033733291
   total no. of   reducible points:  50; test:  1.00000000
  0.000513067179734  1.000000000000000  0.000000000000000  0.000000000000000
  0.016604069565742  0.707106781186547  0.707106781186547  0.000000000000000
 -0.029586038961039  0.577350269189626  0.577350269189626  0.577350269189626
  0.026576207082159  0.480384461415261  0.480384461415261  0.733799385705343
  0.016522170993716  0.320772648980776  0.000000000000000  0.947156221362588
   total no. of   reducible points:  74; test:  1.00000000
  0.011544011544012  1.000000000000000  0.000000000000000  0.000000000000000
  0.011943909085856  0.577350269189626  0.577350269189626  0.577350269189626
  0.011110555710603  0.369602846454150  0.369602846454150  0.852518311701268
  0.011876501294537  0.694354006602666  0.694354006602666  0.189063552885395
  0.011812303746904  0.374243039090341  0.000000000000000  0.927330657151172
   total no. of   reducible points:  86; test:  1.00000000
  0.003828270494937  1.000000000000000  0.000000000000000  0.000000000000000
  0.009793737512488  0.577350269189626  0.577350269189626  0.577350269189626
  0.008211737283191  0.185115635344736  0.185115635344736  0.965124035086594
  0.009942814891178  0.690421048382292  0.690421048382292  0.215957291845848
  0.009595471336071  0.395689473055942  0.395689473055942  0.828769981252592
  0.009694996361663  0.478369028812150  0.000000000000000  0.878158910604066
   total no. of   reducible points: 110; test:  1.00000000
  0.000599631368862  1.000000000000000  0.000000000000000  0.000000000000000
  0.007372999718621  0.707106781186547  0.707106781186547  0.000000000000000
  0.007210515360144  0.577350269189626  0.577350269189626  0.577350269189626
  0.007116355493118  0.676441040011426  0.676441040011426  0.291298882209527
  0.006753829486314  0.417496122796545  0.417496122796545  0.807089818359583
  0.007574394159054  0.157467667203908  0.157467667203908  0.974888643677173
  0.006991087353303  0.140355381171318  0.449332832326956  0.882270011260323
   total no. of   reducible points: 146; test:  1.00000000
  0.005544842902037  1.000000000000000  0.000000000000000  0.000000000000000
  0.006071332770671  0.707106781186547  0.707106781186547  0.000000000000000
  0.006383674773515  0.577350269189626  0.577350269189626  0.577350269189626
  0.005183387587748  0.255125262111413  0.255125262111413  0.932642590312691
  0.006317929009814  0.674360146036277  0.674360146036277  0.300793595137701
  0.006201670006589  0.431891069671941  0.431891069671941  0.791795559393492
  0.005477143385137  0.261393136033599  0.000000000000000  0.965232421976448
  0.005968383987681  0.499045316179604  0.144663074432512  0.854415804684659
   total no. of   reducible points: 170; test:  1.00000000
  0.001782340447245  1.000000000000000  0.000000000000000  0.000000000000000
  0.005716905949977  0.707106781186547  0.707106781186547  0.000000000000000
  0.005573383178849  0.577350269189626  0.577350269189626  0.577350269189626
  0.005608704082588  0.671297344269523  0.671297344269523  0.314196994182586
  0.005158237711805  0.289246562757544  0.289246562757544  0.912509096867474
  0.005518771467274  0.444693317871744  0.444693317871744  0.777493219314767
  0.004106777028169  0.129933544765007  0.129933544765007  0.982972302707253
  0.005051846064615  0.345770219761128  0.000000000000000  0.938319218137592
  0.005530248916233  0.159041710538353  0.836036015482459  0.525118572443642
   total no. of   reducible points: 194; test:  1.00000000
 -0.055226399197273  1.000000000000000  0.000000000000000  0.000000000000000
  0.004450274607445  0.577350269189626  0.577350269189626  0.577350269189626
  0.004496841067921  0.449204468739761  0.449204468739761  0.772289253148364
  0.005049153450479  0.252041949021020  0.252041949021020  0.934317778845812
  0.003976408018052  0.698190665844724  0.698190665844724  0.158302205463478
  0.004401400650381  0.658740524346096  0.658740524346096  0.363485684956727
  0.017245443505444  0.040385440500977  0.040385440500977  0.998367683967727
  0.004231083095357  0.582384230971558  0.000000000000000  0.812913653173365
  0.005198069864064  0.354587739051869  0.000000000000000  0.935022745880593
  0.004695720972569  0.227218180899819  0.486466153588665  0.843636521068894
   total no. of   reducible points: 230; test:  1.00000000
 -0.001313769127327  1.000000000000000  0.000000000000000  0.000000000000000
 -0.002522728704859  0.707106781186547  0.707106781186547  0.000000000000000
  0.004186853881701  0.577350269189626  0.577350269189626  0.577350269189626
  0.005315167977811  0.703937339158548  0.703937339158548  0.094575076403713
  0.004047142377086  0.101252624857241  0.101252624857241  0.989694807462905
  0.004112482394407  0.464744872642054  0.464744872642054  0.753673939250816
  0.003595584899759  0.327742065497163  0.327742065497163  0.886098344997499
  0.004256131351428  0.662033866369997  0.662033866369997  0.351315128564633
  0.004229582700647  0.850650808352040  0.000000000000000  0.525731112119134
  0.004080914225781  0.323348454269290  0.115311201100970  0.939227929749916
  0.004071467593831  0.231479015871260  0.524493924092236  0.819343388819120
   total no. of   reducible points: 266; test:  1.00000000
  0.000854591172513  1.000000000000000  0.000000000000000  0.000000000000000
  0.003599119285026  0.577350269189626  0.577350269189626  0.577350269189626
  0.003449788424306  0.351564034557011  0.351564034557011  0.867643624544083
  0.003604822601420  0.656632941021961  0.656632941021961  0.371034178384821
  0.003576729661743  0.472905413258100  0.472905413258100  0.743452042987556
  0.002352101413689  0.096183085226148  0.096183085226148  0.990705621379408
  0.003108953122414  0.221964523629418  0.221964523629418  0.949454317226443
  0.003650045807677  0.701176641608955  0.701176641608955  0.129238672710514
  0.002982344963172  0.264415288706066  0.000000000000000  0.964408914879206
  0.003600820932216  0.571895589187896  0.000000000000000  0.820326419827759
  0.003571540554273  0.251003475177047  0.800072749407395  0.544867737258077
  0.003392312205006  0.123354853258333  0.412772408316853  0.902442529533000
   total no. of   reducible points: 302; test:  1.00000000
  0.003006796749454  1.000000000000000  0.000000000000000  0.000000000000000
  0.003050627745651  0.577350269189626  0.577350269189626  0.577350269189626
  0.001621104600289  0.706896546391232  0.706896546391232  0.024383301669356
  0.003005701484902  0.479468262571203  0.479468262571203  0.734996850587746
  0.002990992529654  0.192753315487802  0.192753315487802  0.962129055136014
  0.002982170644108  0.693035796132712  0.693035796132712  0.198501311223365
  0.002721564237311  0.360830211552009  0.360830211552009  0.860001812127547
  0.003033513795811  0.649848616149617  0.649848616149617  0.394199888605839
  0.003007949555219  0.193294501323034  0.000000000000000  0.981140782843257
  0.002881964603055  0.380049491989930  0.000000000000000  0.924966152698679
  0.002958357626536  0.289955882549957  0.793453785658232  0.535123047718276
  0.003036020026407  0.096841214551040  0.828080150668686  0.552182074349399
  0.002832187403926  0.183343464704166  0.907465826530513  0.378009189874487
   total no. of   reducible points: 350; test:  1.00000000
  0.000526589796822  1.000000000000000  0.000000000000000  0.000000000000000
  0.002548219972003  0.707106781186547  0.707106781186547  0.000000000000000
  0.002512317418927  0.577350269189626  0.577350269189626  0.577350269189626
  0.002530403801186  0.690934630750911  0.690934630750911  0.212646824707552
  0.002014279020919  0.177483605460916  0.177483605460916  0.967987158791473
  0.002501725168403  0.491434263778475  0.491434263778475  0.719016501040843
  0.002513267174598  0.645666470742426  0.645666470742426  0.407712664897770
  0.002302694782227  0.286128901030764  0.286128901030764  0.914472801120872
  0.001462495621595  0.075680843671780  0.075680843671780  0.994255912631278
  0.002445373437313  0.392725976336800  0.392725976336800  0.831584400419232
  0.002417442375639  0.881813287779429  0.000000000000000  0.471598691151316
  0.001910951282180  0.977642811118265  0.000000000000000  0.210272522857307
  0.002416930044325  0.205482369640304  0.868946032287241  0.450233038258263
  0.002512236854563  0.590515704892527  0.799927854385729  0.106801826075805
  0.002496644054553  0.555015236107681  0.771746262691590  0.310428403516654
  0.002236607760438  0.937180985855372  0.334436314534346  0.099217696364292
   total no. of   reducible points: 434; test:  1.00000000
  0.000309512129531  1.000000000000000  0.000000000000000  0.000000000000000
  0.001852379698597  0.577350269189626  0.577350269189626  0.577350269189626
  0.001871790639278  0.704095493822747  0.704095493822747  0.092190407076898
  0.001858812585438  0.680774406645524  0.680774406645524  0.270356088359165
  0.001852028828296  0.637254693925875  0.637254693925875  0.433373868777154
  0.001846715956151  0.504441970780036  0.504441970780036  0.700768575373573
  0.001818471778163  0.421576178401097  0.421576178401097  0.802836877335274
  0.001749564657281  0.331792073647212  0.331792073647212  0.883078727934133
  0.001617210647254  0.238473670142189  0.238473670142189  0.941414158220403
  0.001384737234852  0.145903644915776  0.145903644915776  0.978480583762694
  0.000976433116505  0.060950341155072  0.060950341155072  0.996278129754016
  0.001857161196774  0.611684344200988  0.000000000000000  0.791101929626902
  0.001705153996396  0.396475534819986  0.000000000000000  0.918045287711454
  0.001300321685886  0.172478200990772  0.000000000000000  0.985013335028002
  0.001842866472905  0.561026380862206  0.351828092773352  0.749310611904116
  0.001802658934377  0.474239284255198  0.263471665593795  0.840047488359050
  0.001849830560444  0.598412649788538  0.181664084036021  0.780320742479920
  0.001713904507107  0.379103540769556  0.172079522565688  0.909213475092374
  0.001555213603397  0.277867319058624  0.082130215819325  0.957102074310073
  0.001802239128009  0.503356427107512  0.089992058420749  0.859379855890721
   total no. of   reducible points: 590; test:  1.00000000
  0.000219294208818  1.000000000000000  0.000000000000000  0.000000000000000
  0.001436433617319  0.707106781186547  0.707106781186547  0.000000000000000
  0.001421940344336  0.577350269189626  0.577350269189626  0.577350269189626
  0.000679812351105  0.050872044105024  0.050872044105024  0.997408677652823
  0.000991318423529  0.122819879017883  0.122819879017883  0.984799753572301
  0.001180207833239  0.202689081440879  0.202689081440879  0.958036675983391
  0.001296599602081  0.284774515646429  0.284774515646429  0.915317950483155
  0.001365871427428  0.365671907897803  0.365671907897803  0.855901928697887
  0.001402988604775  0.442826488671347  0.442826488671347  0.779621319527635
  0.001418645563596  0.514061962724974  0.514061962724974  0.686644447264154
  0.001421376741852  0.630640121916680  0.630640121916680  0.452311920313658
  0.001423996475491  0.671688333202261  0.671688333202261  0.312521305001653
  0.001431554042179  0.697979268533688  0.697979268533688  0.160155803498829
  0.000925440149987  0.144686567419531  0.000000000000000  0.989477537495599
  0.001250239995054  0.339026347541122  0.000000000000000  0.940776878793759
  0.001394365843329  0.533580465126351  0.000000000000000  0.845749305193653
  0.001127089094672  0.069440243933494  0.235518789424233  0.969385863498432
  0.001345753760911  0.226900410952946  0.410218247404573  0.883310360522113
  0.001424957283317  0.080255746077753  0.621430241748161  0.779348105702661
  0.001261523341238  0.146799952789657  0.324528434571739  0.934414827052402
  0.001392547106053  0.157150776982473  0.522448218969663  0.838064133458312
  0.001418761677878  0.236570299315725  0.601754663408956  0.762840624604670
  0.001338366684480  0.077148158667657  0.434657551614116  0.897285336132833
  0.001393700862676  0.306293666621073  0.490882658903762  0.815609223203975
  0.001415914757467  0.382247737952479  0.564876814909950  0.731300793659766
   total no. of   reducible points: 770; test:  1.00000000
  0.000143829419053  1.000000000000000  0.000000000000000  0.000000000000000
  0.001125772288287  0.577350269189626  0.577350269189626  0.577350269189626
  0.000494802934195  0.042929635453413  0.042929635453413  0.998155345023847
  0.000735799010913  0.105142685408640  0.105142685408640  0.988883224354686
  0.000888913277130  0.175002486762309  0.175002486762309  0.968890220434707
  0.000988834783892  0.247765337965026  0.247765337965026  0.936602730407163
  0.001053299681709  0.320656712395596  0.320656712395596  0.891267942647606
  0.001092778807015  0.391652074984998  0.391652074984998  0.832596723702352
  0.001114389394063  0.459082587418762  0.459082587418762  0.760582905315251
  0.001123724788052  0.521456388841586  0.521456388841586  0.675400969108414
  0.001125239325244  0.625317024465420  0.625317024465420  0.466858905695743
  0.001126153271816  0.663792674452317  0.663792674452317  0.344613654237438
  0.001130286931124  0.691041039849830  0.691041039849830  0.211954151850184
  0.001134986534364  0.705290700745776  0.705290700745776  0.071624401449956
  0.000682336792711  0.123668676265799  0.000000000000000  0.992323565431490
  0.000945415816045  0.294077711446839  0.000000000000000  0.955781512496548
  0.001074429975386  0.469775384920765  0.000000000000000  0.882785980701182
  0.001129300086569  0.633456324113957  0.000000000000000  0.773778447257375
  0.000843688450090  0.059740486141813  0.202912875277752  0.977372722845310
  0.001075255720449  0.137576040847364  0.460262194248405  0.877058461865803
  0.001108577236864  0.339101652633629  0.503067399966204  0.794942299964208
  0.000956647532378  0.127167519143982  0.281760642244213  0.951020169374390
  0.001080663250717  0.269312074041351  0.433156129172016  0.860143461601762
  0.001126797131196  0.141978645260192  0.625616735858081  0.767102186220558
  0.001022568715358  0.067092846007383  0.379839521685916  0.922616110730809
  0.001108960267713  0.070577381832562  0.551750542142352  0.831017552413474
  0.001122790653436  0.278388847788215  0.602961915615919  0.747620610834086
  0.001032401847117  0.197957893891741  0.358960632958910  0.912118378409121
  0.001107249382284  0.208730706110327  0.534866643813548  0.818748536281022
  0.001121780048520  0.405512213787284  0.567499754607437  0.716591845467024
   total no. of   reducible points: 974; test:  1.00000000
  0.000110518923327  1.000000000000000  0.000000000000000  0.000000000000000
  0.000920523273809  0.707106781186547  0.707106781186547  0.000000000000000
  0.000913315978644  0.577350269189626  0.577350269189626  0.577350269189626
  0.000369042189802  0.037126364496571  0.037126364496571  0.998620681799919
  0.000560399092868  0.091400604122622  0.091400604122622  0.991610739722014
  0.000686529762928  0.153107785246991  0.153107785246991  0.976276606394685
  0.000772033855115  0.218092889166061  0.218092889166061  0.951247067480579
  0.000830154595889  0.283987453220018  0.283987453220018  0.915806886208668
  0.000868669255018  0.349117760096376  0.349117760096376  0.869616915181954
  0.000892707628585  0.412143146144431  0.412143146144431  0.812573722299916
  0.000906082023857  0.471899362714913  0.471899362714913  0.744729469632107
  0.000911977725494  0.527314545284234  0.527314545284234  0.666242253736104
  0.000912872013860  0.620947533244402  0.620947533244402  0.478380938076952
  0.000913071493569  0.656972271185729  0.656972271185729  0.369830866459426
  0.000915287378455  0.684178830907014  0.684178830907014  0.252583955700718
  0.000918743627432  0.701260433012363  0.701260433012363  0.128326186659723
  0.000517697731297  0.107238221547817  0.000000000000000  0.994233354821322
  0.000733114368210  0.258206895949697  0.000000000000000  0.966089643296119
  0.000846323283638  0.417275295530672  0.000000000000000  0.908780131681911
  0.000903112269425  0.570036691179250  0.000000000000000  0.821619237061433
  0.000648577845316  0.982798601826395  0.177177402261533  0.052106394770113
  0.000743503091098  0.962424923032623  0.247571646342629  0.111564095715648
  0.000799852789184  0.940200799412881  0.335461628906649  0.059058888532354
  0.000810173149747  0.932082204014320  0.317361524661198  0.174655167757863
  0.000848338957459  0.904367419939330  0.409026842708536  0.121723505109599
  0.000855629925731  0.891240756007475  0.385429115066922  0.239027847938172
  0.000880320867974  0.867643562846271  0.493222118485128  0.062662506241542
  0.000881104818243  0.858197998604162  0.478532067592243  0.185750519454734
  0.000885028234127  0.839675362404986  0.450742259315706  0.302946697352898
  0.000902134229904  0.816528856402219  0.563212302076210  0.126777480068428
  0.000901009167711  0.801546937078353  0.543430356969390  0.249411216236224
  0.000902269293843  0.777356306907035  0.512351848641987  0.364983226059765
  0.000915801617469  0.766162121390039  0.639427963474910  0.064245492242208
  0.000913157800319  0.755358414353351  0.626980550902439  0.190601822277923
  0.000910781357948  0.734430575755950  0.603116169309631  0.311227594714961
  0.000910576025897  0.704383718402177  0.569370249846844  0.423864478152234
   total no. of   reducible points:1202; test:  1.00000000
  0.000077771607433  1.000000000000000  0.000000000000000  0.000000000000000
  0.000755764641300  0.577350269189626  0.577350269189626  0.577350269189626
  0.000284163380609  0.032292906634139  0.032292906634139  0.998956623864238
  0.000437441912705  0.080367332714622  0.080367332714622  0.993520097262594
  0.000541717474087  0.135428996053165  0.135428996053165  0.981487633165117
  0.000614800089136  0.193896386111443  0.193896386111443  0.961669580940275
  0.000666439448580  0.253734371501127  0.253734371501127  0.933401166400522
  0.000702503935692  0.313525143475257  0.313525143475257  0.896328047546008
  0.000726851178925  0.372155833937534  0.372155833937534  0.850294108254619
  0.000742263753421  0.428680957519570  0.428680957519570  0.795276853253136
  0.000750954503584  0.482251012828299  0.482251012828299  0.731346649169981
  0.000754853505772  0.532067933356626  0.532067933356626  0.658640591360127
  0.000755408896977  0.617299819539427  0.617299819539427  0.487731345715221
  0.000755314717444  0.651067984912748  0.651067984912748  0.390155043595885
  0.000756476765329  0.677731525168736  0.677731525168736  0.285236672931301
  0.000758799180852  0.696310941064874  0.696310941064874  0.174075117999957
  0.000760826183203  0.705893500983175  0.705893500983175  0.058555363028785
  0.000402168044787  0.995554619409186  0.000000000000000  0.094185985013862
  0.000580487179395  0.973411590179421  0.000000000000000  0.229063039585986
  0.000679215195595  0.927569373238863  0.000000000000000  0.373650983980055
  0.000733674121129  0.856802242279510  0.000000000000000  0.515645147000147
  0.000758186630099  0.762349555371937  0.000000000000000  0.647165477620840
  0.000753825785980  0.570752290889222  0.438702803988950  0.694104943230444
  0.000748351724705  0.519646338840308  0.385890841476262  0.762270254565011
  0.000737176366111  0.464633753121535  0.330193737234385  0.821637128756598
  0.000718344889576  0.406390169755769  0.272542357356378  0.872105322408083
  0.000689581552982  0.345632946664309  0.213951023749525  0.913653558859526
  0.000648010580179  0.283139512105033  0.155592230978665  0.946373644151191
  0.000589755889659  0.219768202292533  0.098928789796861  0.970523071240677
  0.000509570884925  0.156469609865035  0.045986429106755  0.986611630545015
  0.000753690642891  0.602735667372129  0.337662514017343  0.722975616397235
  0.000747250596558  0.549603232025510  0.282230130972799  0.786309379645309
  0.000734301713228  0.492170775523457  0.224863234259254  0.840954489612314
  0.000713087158218  0.430942299859848  0.166622472345648  0.886862833757808
  0.000681702203211  0.366410818231367  0.108696490182217  0.924082347686118
  0.000638094114560  0.299018905775844  0.052519897841201  0.952800794667682
  0.000755038137792  0.626872401314500  0.229752365755002  0.744476220506856
  0.000747864664014  0.570732414483461  0.172308060709380  0.802853936449496
  0.000733591872060  0.509636090196037  0.114023846539051  0.852801042441985
  0.000711012052766  0.443872993831246  0.056115220958825  0.894330949550573
  0.000757136397869  0.641997847108239  0.116417442314087  0.757816431224233
  0.000748990832908  0.581721806180261  0.057975895314452  0.811319009870262
   total no. of   reducible points:1454; test:  1.00000000
  qrot: 

              1        2        3      
    1    1.0000   0.0000   0.0000
    2    0.0000   1.0000   0.0000
    3    0.0000   0.0000   1.0000
  me                     0   done genpts
  me                     2   done genpts
  me                     3   done genpts
  me                     5   done genpts
  me                     7   done genpts
  me                     1   done genpts
  me                     4   done genpts
  me                     6   done genpts
  me                     0   done uprt
  me                     1   done uprt
  me                     2   done uprt
  me                     3   done uprt
  me                     4   done uprt
  me                     5   done uprt
  me                     6   done uprt
  me                     7   done uprt
  me                     0  done mem
  me                     1  done mem
  me                     2  done mem
  me                     3  done mem
  me                     4  done mem
  me                     5  done mem
  me                     6  done mem
  me                     7  done mem
  dftinpanae: itol2e                     8  iaoacc                    14  tol_rho    1.0000000000000000E-010

            General Information
            -------------------
          SCF calculation type: DFT
          Wavefunction type:  spin polarized.
          No. of atoms     :     1
          No. of electrons :     8
           Alpha electrons :     5
            Beta electrons :     3
          Charge           :     0
          Spin multiplicity:     3
          Use of symmetry is: off; symmetry adaption is: off
          Maximum number of iterations:  50
          AO basis - number of functions:    55
                     number of shells:    14
          Convergence on energy requested:  1.00D-06
          Convergence on density requested:  1.00D-05
          Convergence on gradient requested:  5.00D-04

              XC Information
              --------------
                     Hartree-Fock (Exact) Exchange  1.000          
                     LC-wPBE(h)Exchange Functional  1.000          
            Perdew 1991 LDA Correlation Functional  1.000 local    
           PerdewBurkeErnz. Correlation Functional  1.000 non-local

           Range-Separation Parameters        
           ---------------------------
           Alpha           :  0.00
           Beta            :  1.00
           Gamma           :  0.43
           Short-Range HF  :     F

             Grid Information
             ----------------
          Grid used for XC integration:  xfine     
          Radial quadrature: Mura-Knowles        
          Angular quadrature: Lebedev. 
          Tag              B.-S. Rad. Rad. Pts. Rad. Cut. Ang. Pts.
          ---              ---------- --------- --------- ---------
          O                   0.60      100           7.0      1454
          Grid pruning is: on 
          Number of quadrature shells:   100
          Spatial weights used:  Erf1

          Convergence Information
          -----------------------
          Convergence aids based upon iterative change in 
          total energy or number of iterations. 
          Levelshifting, if invoked, occurs when the 
          HOMO/LUMO gap drops below (HL_TOL):  1.00D-02
          DIIS, if invoked, will attempt to extrapolate 
          using up to (NFOCK): 10 stored Fock matrices.

                    Damping( 0%)  Levelshifting(0.5)       DIIS
                  --------------- ------------------- ---------------
          dE  on:    start            ASAP                start   
          dE off:    2 iters         50 iters            50 iters 


      Screening Tolerance Information
      -------------------------------
          Density screening/tol_rho:  1.00D-10
          AO Gaussian exp screening on grid/accAOfunc:  14
          CD Gaussian exp screening on grid/accCDfunc:  20
          XC Gaussian exp screening on grid/accXCfunc:  20
          Schwarz screening/accCoul:  1.00D-08



                         Geometry "geometry" -> "geometry"
                         ---------------------------------

 Output coordinates in angstroms (scale by  1.889725989 to convert to a.u.)

  No.       Tag          Charge          X              Y              Z
 ---- ---------------- ---------- -------------- -------------- --------------
    1 O                    8.0000     0.00000000     0.00000000     0.00000000

      Atomic Mass 
      ----------- 

      O                 15.994910


 Effective nuclear repulsion energy (a.u.)       0.0000000000

            Nuclear Dipole moment (a.u.) 
            ----------------------------
        X                 Y               Z
 ---------------- ---------------- ----------------
     0.0000000000     0.0000000000     0.0000000000

  
  CAM type calculations without CDFIT are
  only available with the direct option.
  Forcing Direct SCF
  


     <<<<<<    Before call to DFT_SCF.    >>>>>>
     <<<<<< date:  Apr 15  time: 00:13:34 >>>>>>


 Setting tolerance for linear dependence to 1.00D-05






 Setting tolerance for linear dependence to 1.00D-05

 Setting tolerance for linear dependence to 1.00D-05
 Setting tolerance for linear dependence to 1.00D-05
 Setting tolerance for linear dependence to 1.00D-05
 Setting tolerance for linear dependence to 1.00D-05
 Setting tolerance for linear dependence to 1.00D-05
 Setting tolerance for linear dependence to 1.00D-05
  lindep tolerance =    1.0000000000000001E-005
  lindep tolerance =    1.0000000000000001E-005
  lindep tolerance =    1.0000000000000001E-005
  lindep tolerance =    1.0000000000000001E-005
  lindep tolerance =    1.0000000000000001E-005
  lindep tolerance =    1.0000000000000001E-005
  lindep tolerance =    1.0000000000000001E-005
  lindep tolerance =    1.0000000000000001E-005


     <<<<<<    Before 3c-2e initialize.   >>>>>>
     <<<<<< date:  Apr 15  time: 00:13:34 >>>>>>


 Setting fock-build task_bf   :      -1
                    maxquartet:   10000
                    maxeri    :  129600
                    maxscr    :       0
                    intacc    : 0.0D+00
                    denscreen : T
                    dentol    : 1.0D-06


      Superposition of Atomic Density Guess
      -------------------------------------

 Sum of atomic energies:         -74.78126245

      Non-variational initial energy
      ------------------------------

 Total energy =     -74.280003
 1-e energy   =    -103.213045
 2-e energy   =      28.933043
 HOMO         =      -0.376641
 LUMO         =      -0.376641


 Setting fock-build task_bf   :      -1
                    maxquartet:   10000
                    maxeri    :  129600
                    maxscr    :       0
                    intacc    : 0.0D+00
                    denscreen : T
                    dentol    : 1.0D-06


 Wrote molecular orbitals to ./o.movecs

  WARNING: movecs_in_org=atomic not equal to movecs_in=./o.movecs
   Time after variat. SCF:      0.4

 Setting fock-build task_bf   :      -1
                    maxquartet:   10000
                    maxeri    :  129600
                    maxscr    :       0
                    intacc    : 0.0D+00
                    denscreen : T
                    dentol    : 1.0D-06

   Time prior to 1st pass:      0.4


     <<<<<<      Before SCF iter loop.    >>>>>>
     <<<<<< date:  Apr 15  time: 00:13:34 >>>>>>

           DAMPING=T LEVELSHIFTING=F DIISING=T
          itol2e= 8 iAOacc=12 iXCacc=20


     <<<<<<            calling 1-e int    >>>>>>
     <<<<<< date:  Apr 15  time: 00:13:34 >>>>>>

    Kinetic Matrix Time:          0.0s

           Kinetic energy =     73.858561327637

    Potential Matrix Time:          0.0s


     <<<<<<    Before call to GETVXC.     >>>>>>
     <<<<<< date:  Apr 15  time: 00:13:34 >>>>>>



     <<<<<<    Before call to fock_2e.    >>>>>>
     <<<<<< date:  Apr 15  time: 00:13:34 >>>>>>



     <<<<<<     After call to fock_2e.    >>>>>>
     <<<<<< date:  Apr 15  time: 00:13:34 >>>>>>

    Fock_2e Build Time:          0.1s
  *** grid_quadv0:                    calc_type:                    1
  *** grid_quadv0:                    grid_written: F
  *** grid_quadv0:                    grad: T
  *** grid_quadv0:                    kske: F
  *** grid_quadv0:                    kslap: F
  *** grid_quadv0:                    do_scf: T
  *** grid_quadv0:                    fde_option:                    0
  *** grid_quadv0:                    n_per_rec:                 3070
  *** grid_quadv0:                    calc_type:                    1
  *** grid_quadv0:                    grid_written: F
  *** grid_quadv0:                    grad: T
  *** grid_quadv0:                    kske: F
  *** grid_quadv0:                    kslap: F
  *** grid_quadv0:                    do_scf: T
  *** grid_quadv0:                    calc_type:                    1
  *** grid_quadv0:                    grid_written: F
  *** grid_quadv0:                    grad: T
  *** grid_quadv0:                    kske: F
  *** grid_quadv0:                    kslap: F
  *** grid_quadv0:                    do_scf: T
  *** grid_quadv0:                    fde_option:                    0
  *** grid_quadv0:                    n_per_rec:                 3070
  *** grid_quadv0:                    calc_type:                    1
  *** grid_quadv0:                    grid_written: F
  *** grid_quadv0:                    grad: T
  *** grid_quadv0:                    kske: F
  *** grid_quadv0:                    kslap: F
  *** grid_quadv0:                    do_scf: T
  *** grid_quadv0:                    fde_option:                    0
  *** grid_quadv0:                    n_per_rec:                 3070
  *** grid_quadv0:                    fde_option:                    0
  *** grid_quadv0:                    n_per_rec:                 3070
  *** grid_quadv0:                    calc_type:                    1
  *** grid_quadv0:                    grid_written: F
  *** grid_quadv0:                    grad: T
  *** grid_quadv0:                    kske: F
  *** grid_quadv0:                    kslap: F
  *** grid_quadv0:                    do_scf: T
  *** grid_quadv0:                    fde_option:                    0
  *** grid_quadv0:                    n_per_rec:                 3070
  *** grid_quadv0:                    calc_type:                    1
  *** grid_quadv0:                    grid_written: F
  *** grid_quadv0:                    grad: T
  *** grid_quadv0:                    kske: F
  *** grid_quadv0:                    kslap: F
  *** grid_quadv0:                    do_scf: T
  *** grid_quadv0:                    fde_option:                    0
  *** grid_quadv0:                    n_per_rec:                 3070
  *** grid_quadv0:                    calc_type:                    1
  *** grid_quadv0:                    grid_written: F
  *** grid_quadv0:                    grad: T
  *** grid_quadv0:                    kske: F
  *** grid_quadv0:                    kslap: F
  *** grid_quadv0:                    do_scf: T
  *** grid_quadv0:                    fde_option:                    0
  *** grid_quadv0:                    n_per_rec:                 3070
  *** grid_quadv0:                    calc_type:                    1
  *** grid_quadv0:                    grid_written: F
  *** grid_quadv0:                    grad: T
  *** grid_quadv0:                    kske: F
  *** grid_quadv0:                    kslap: F
  *** grid_quadv0:                    do_scf: T
  *** grid_quadv0:                    fde_option:                    0
  *** grid_quadv0:                    n_per_rec:                 3070
   0: nuse=   8 avail= 12500000Mb on .
   1: nuse=   8 avail= 12500000Mb on .
   2: nuse=   8 avail= 12500000Mb on .
   3: nuse=   8 avail= 12500000Mb on .
   4: nuse=   8 avail= 12500000Mb on .
   5: nuse=   8 avail= 12500000Mb on .
   6: nuse=   8 avail= 12500000Mb on .
   7: nuse=   8 avail= 12500000Mb on .
 l_cube input   11.00

  atom type   l_cube   no. cubes   segmts   rad   sub
 ----------- -------- ----------- -------- ----- -----
        1      9.33        34         3      14     8

 Grid_pts file          = ./o.gridpts.0
 Record size in doubles =  12289        No. of grid_pts per rec  =   3070
 Max. records in memory =      8        Max. recs in file   = 126656358

 me   0 NQTOTC NQ/cube   14203     789
 me   1 NQTOTC NQ/cube    7364    2454
 me   2 NQTOTC NQ/cube    8371    2790
 me   3 NQTOTC NQ/cube    8734    4367
 me   4 NQTOTC NQ/cube    7008    3504
 me   5 NQTOTC NQ/cube    7160    3580
 me   6 NQTOTC NQ/cube    7753    3876
 me   7 NQTOTC NQ/cube    7695    3847

 XC quadr. integrated density :       8.000000 npts:    68138 nctrs:        1

    Fock_xc Build Time:          0.1s


     <<<<<<    Before call to GETVCOUL.   >>>>>>
     <<<<<< date:  Apr 15  time: 00:13:34 >>>>>>



     <<<<<<    End of parallel region.    >>>>>>
     <<<<<< date:  Apr 15  time: 00:13:34 >>>>>>

    Total Fock Matrix Build Time:          0.2s
 Etnew, Ecore, Ecoul, Exc(1), Exc(2), Totsic:   -75.012262080431569       -102.33273325585128        35.595226958185343       -8.2747557827656326        0.0000000000000000        0.0000000000000000     
  delta =   -75.012262080431569     
  delta =   -75.012262080431569     
  delta =   -75.012262080431569     
  delta =   -75.012262080431569     


         Total DFT energy =      -75.012262080432
      One electron energy =     -102.332733255851
           Coulomb energy =       35.595226958185
    Exchange-Corr. energy =       -8.274755782766
 Nuclear repulsion energy =        0.000000000000

 Numeric. integr. density =        7.999999995160

  delta =   -75.012262080431569     
  delta =   -75.012262080431569     
  delta =   -75.012262080431569     
  delta =   -75.012262080431569     
     Total iterative time =      1.5s




     <<<<<<        calling diis driver    >>>>>>
     <<<<<< date:  Apr 15  time: 00:13:34 >>>>>>

 nhist                     1  pulay matrix 
   0.0000E+00
  -1.0000E+00   2.0398E-01


     <<<<<<         called diis driver    >>>>>>
     <<<<<< date:  Apr 15  time: 00:13:34 >>>>>>


 global array: fock transf[1:55,1:55],  handle: -940 

            1           2           3           4           5           6  
       ----------- ----------- ----------- ----------- ----------- -----------
   1       6.82990    -0.00000     0.00000     0.00000    -4.76010     0.00000
   2      -0.00000    12.28553    -0.01559    -0.00114    -0.00000    -0.88888
   3       0.00000    -0.01559    12.31720     0.00298     0.00000    -0.65617
   4       0.00000    -0.00114     0.00298    12.27934     0.00000    -1.31844
   5      -4.76010    -0.00000     0.00000     0.00000     9.16236     0.00000
   6       0.00000    -0.88888    -0.65617    -1.31844     0.00000     2.55331
   7       0.00000     1.47372    -0.37975    -0.80778     0.00000     0.00180
   8      -0.00000    -0.02495     1.55413    -0.75148    -0.00000    -0.00350
   9       0.00000    -0.00268     0.00008    -0.00159    -0.00000     0.00975
  10      -1.64801     0.00000    -0.00000    -0.00000     2.50782    -0.00000
  11       0.00000    -0.00123     0.00208     0.00111    -0.00000    -0.00232
  12       0.00000    -0.00002    -0.00063    -0.00145     0.00000     0.00446
  13       0.00000     0.00071    -0.00283    -0.00067    -0.00000     0.00397
  14      -0.91422    -0.00000     0.00000     0.00000     0.21910     0.00000
  15       0.00000     0.24020     0.05753     0.11721     0.00000     0.70042
  16       0.00000     0.00491     0.24611    -0.12644     0.00000    -0.00252
  17       0.00000     0.13174    -0.10985    -0.21496     0.00000    -0.40742
  18       0.00155     0.00000    -0.00000     0.00000    -0.00542     0.00000
  19      -0.00227    -0.00000     0.00000    -0.00000     0.00794    -0.00000
  20      -0.00107     0.00000     0.00000     0.00000     0.00375     0.00000
  21       0.00000     0.00133    -0.00003     0.00079     0.00000    -0.00197
  22      -0.00124     0.00000    -0.00000    -0.00000     0.00435    -0.00000
  23      -0.00144    -0.00000     0.00000     0.00000     0.00504     0.00000
  24      -0.00000     0.00034    -0.00098    -0.00056     0.00000     0.00080
  25       0.00000     0.00018    -0.00023    -0.00041     0.00000     0.00048
  26      -0.00000     0.00049    -0.00035     0.00008     0.00000    -0.00032
  27      -0.00155    -0.00000    -0.00000     0.00000     0.00249    -0.00000
  28      -0.00110     0.00000    -0.00000     0.00000     0.00176     0.00000
  29      -0.00015    -0.00000    -0.00000    -0.00000     0.00024    -0.00000
  30       0.00000     0.07734     0.00546     0.03389     0.00000    -0.67480
  31       0.00000    -0.00504    -0.08170     0.03041     0.00000     0.09453
  32       0.00000     0.03486    -0.03384    -0.07062     0.00000     0.47904
  33      -0.00000     0.32005    -0.37018    -0.39459    -0.00000     0.54426
  34       0.00000    -0.40631    -0.46430     0.09447     0.00000     0.61740
  35      -0.00000    -0.34785     0.21543    -0.47144    -0.00000     0.90424
  36       0.26836     0.00000    -0.00000    -0.00000    -1.04443    -0.00000
  37      -0.00107    -0.00000     0.00000     0.00000     0.00171     0.00000
  38      -0.00061     0.00000    -0.00000    -0.00000     0.00098    -0.00000
  39      -0.00025    -0.00000     0.00000    -0.00000    -0.00085    -0.00000
  40       0.00009    -0.00000    -0.00000    -0.00000     0.00029    -0.00000
  41      -0.00006     0.00000     0.00000     0.00000    -0.00019     0.00000
  42       0.00000    -0.02201    -0.09039    -0.00247     0.00000     0.08637
  43      -0.00000     0.05838    -0.02083     0.06428    -0.00000    -0.13502
  44      -0.00000    -0.06384     0.02016     0.06022    -0.00000    -0.03745
  45       0.00008    -0.00000     0.00000     0.00000     0.00025     0.00000
  46       0.00016     0.00000    -0.00000    -0.00000     0.00053    -0.00000
  47       0.05520    -0.00000     0.00000     0.00000     0.54834     0.00000
  48       0.00000     0.20909     0.02790     0.15654     0.00000    -0.25607
  49      -0.00000    -0.13138     0.17168     0.14592    -0.00000    -0.11808
  50      -0.00000    -0.08839    -0.19363     0.15189    -0.00000     0.00439
  51      -0.37922     0.00000    -0.00000    -0.00000     0.80441    -0.00000
  52       0.00000    -0.10033     0.03079    -0.10112     0.00000     0.06498
  53       0.00000    -0.08906     0.04891     0.10339     0.00000    -0.02873
  54       0.00000     0.05665     0.13207    -0.01390     0.00000    -0.03853
  55       0.17811     0.00000    -0.00000    -0.00000    -0.31584    -0.00000

            7           8           9          10          11          12  
       ----------- ----------- ----------- ----------- ----------- -----------
   1       0.00000    -0.00000     0.00000    -1.64801     0.00000     0.00000
   2       1.47372    -0.02495    -0.00268     0.00000    -0.00123    -0.00002
   3      -0.37975     1.55413     0.00008    -0.00000     0.00208    -0.00063
   4      -0.80778    -0.75148    -0.00159    -0.00000     0.00111    -0.00145
   5       0.00000    -0.00000    -0.00000     2.50782    -0.00000     0.00000
   6       0.00180    -0.00350     0.00975    -0.00000    -0.00232     0.00446
   7       2.55742    -0.01164    -0.00588    -0.00000    -0.00533     0.00157
   8      -0.01164     2.56259     0.00298     0.00000     0.00477    -0.00024
   9      -0.00588     0.00298     4.72256    -0.00000     0.00001     0.00004
  10      -0.00000     0.00000    -0.00000     9.99108    -0.00000     0.00000
  11      -0.00533     0.00477     0.00001    -0.00000     4.72330    -0.00299
  12       0.00157    -0.00024     0.00004     0.00000    -0.00299     4.72509
  13       0.00616    -0.00544    -0.00000    -0.00000    -0.02030     0.00560
  14       0.00000    -0.00000     0.00000     5.83590     0.00000    -0.00000
  15      -0.40808     0.01251     0.02265    -0.00000     0.00211     0.00659
  16      -0.02000    -0.80402    -0.00560    -0.00000    -0.00749     0.00310
  17      -0.69685     0.02670     0.00047    -0.00000    -0.00139     0.00042
  18      -0.00000     0.00000     0.00000    -0.00230     0.00000    -0.00000
  19       0.00000    -0.00000    -0.00000     0.00337     0.00000    -0.00000
  20      -0.00000    -0.00000    -0.00000     0.00159    -0.00000    -0.00000
  21       0.00114    -0.00054    -1.87193     0.00000     0.00004     0.00009
  22      -0.00000    -0.00000    -0.00000     0.00184    -0.00000     0.00000
  23       0.00000     0.00000     0.00000     0.00214    -0.00000    -0.00000
  24       0.00091    -0.00072    -0.00001    -0.00000    -1.28787     1.06855
  25       0.00068     0.00012    -0.00002     0.00000     1.08264     0.10145
  26       0.00065    -0.00038     0.00009     0.00000    -0.82159    -1.53546
  27       0.00000     0.00000    -0.00000     0.00462    -0.00000    -0.00000
  28      -0.00000     0.00000     0.00000     0.00327    -0.00000    -0.00000
  29       0.00000    -0.00000     0.00000     0.00044    -0.00000     0.00000
  30       0.47864    -0.09741    -0.01108    -0.00000    -0.00144    -0.00281
  31      -0.03137    -0.82980    -0.00151    -0.00000    -0.00387     0.00122
  32       0.68244     0.02312     0.00086    -0.00000    -0.00162     0.00157
  33       1.05672    -0.31773    -0.00018     0.00000    -0.01010     0.00519
  34      -0.57351    -0.88742     0.00045    -0.00000    -0.00015    -0.00224
  35      -0.24044     0.79073     0.00092     0.00000    -0.00110     0.00222
  36      -0.00000     0.00000     0.00000    -0.80605    -0.00000     0.00000
  37       0.00000     0.00000    -0.00000     0.00317    -0.00000     0.00000
  38      -0.00000    -0.00000     0.00000     0.00182     0.00000    -0.00000
  39       0.00000    -0.00000    -0.00000     0.00339    -0.00000    -0.00000
  40       0.00000     0.00000     0.00000    -0.00116     0.00000     0.00000
  41      -0.00000    -0.00000     0.00000     0.00074    -0.00000     0.00000
  42      -0.00418    -0.14023    -0.00149    -0.00000     0.00293    -0.00133
  43       0.04136    -0.08435     0.00601     0.00000     0.00096     0.00179
  44      -0.15948    -0.02142    -0.00169     0.00000    -0.00310     0.00160
  45       0.00000     0.00000     0.00000    -0.00100     0.00000    -0.00000
  46      -0.00000    -0.00000    -0.00000    -0.00213     0.00000     0.00000
  47       0.00000    -0.00000    -0.00000    -1.34500    -0.00000     0.00000
  48       0.10785    -0.05088    -0.01619    -0.00000     0.00029    -0.00535
  49      -0.23760     0.10578     0.00264     0.00000     0.01825    -0.00863
  50      -0.10685    -0.25620    -0.00037     0.00000    -0.00152    -0.00380
  51      -0.00000     0.00000    -0.00000     0.22843    -0.00000    -0.00000
  52      -0.02603     0.04098     0.00929    -0.00000     0.00108     0.00331
  53      -0.07510     0.00209     0.00160    -0.00000     0.00985    -0.00563
  54       0.01275     0.06881    -0.00269    -0.00000     0.00453    -0.00087
  55      -0.00000     0.00000     0.00000    -0.28212    -0.00000     0.00000

           13          14          15          16          17          18  
       ----------- ----------- ----------- ----------- ----------- -----------
   1       0.00000    -0.91422     0.00000     0.00000     0.00000     0.00155
   2       0.00071    -0.00000     0.24020     0.00491     0.13174     0.00000
   3      -0.00283     0.00000     0.05753     0.24611    -0.10985    -0.00000
   4      -0.00067     0.00000     0.11721    -0.12644    -0.21496     0.00000
   5      -0.00000     0.21910     0.00000     0.00000     0.00000    -0.00542
   6       0.00397     0.00000     0.70042    -0.00252    -0.40742     0.00000
   7       0.00616     0.00000    -0.40808    -0.02000    -0.69685    -0.00000
   8      -0.00544    -0.00000     0.01251    -0.80402     0.02670     0.00000
   9      -0.00000     0.00000     0.02265    -0.00560     0.00047     0.00000
  10      -0.00000     5.83590    -0.00000    -0.00000    -0.00000    -0.00230
  11      -0.02030     0.00000     0.00211    -0.00749    -0.00139     0.00000
  12       0.00560    -0.00000     0.00659     0.00310     0.00042    -0.00000
  13       4.71915    -0.00000    -0.00300    -0.00399    -0.01480    -0.00000
  14      -0.00000     4.63423     0.00000     0.00000     0.00000     0.00366
  15      -0.00300     0.00000     4.39659     0.00159     0.00127    -0.00000
  16      -0.00399     0.00000     0.00159     4.41085    -0.00080     0.00000
  17      -0.01480     0.00000     0.00127    -0.00080     4.40414     0.00000
  18      -0.00000     0.00366    -0.00000     0.00000     0.00000     3.79844
  19      -0.00000    -0.00536     0.00000    -0.00000    -0.00000    -0.00606
  20       0.00000    -0.00253    -0.00000    -0.00000     0.00000     0.00535
  21      -0.00002    -0.00000    -0.01202     0.00293    -0.00023    -0.00000
  22       0.00000    -0.00293    -0.00000    -0.00000    -0.00000    -0.00258
  23      -0.00000    -0.00340     0.00000     0.00000     0.00000    -0.00369
  24       0.85793     0.00000     0.00062     0.00299    -0.00369    -0.00000
  25       1.51165    -0.00000    -0.00028    -0.00322    -0.00636    -0.00000
  26       0.69055     0.00000    -0.00379     0.00020    -0.00264    -0.00000
  27       0.00000     0.00248     0.00000     0.00000    -0.00000     0.13670
  28      -0.00000     0.00175    -0.00000     0.00000     0.00000    -2.24027
  29       0.00000     0.00024     0.00000    -0.00000    -0.00000    -0.64814
  30       0.00144     0.00000    -1.48015     0.15185    -0.13545    -0.00000
  31       0.00136     0.00000     0.15610     1.48593    -0.07728    -0.00000
  32       0.00694     0.00000     0.12614    -0.08271    -1.48722     0.00000
  33       0.00304    -0.00000     0.06345    -0.26241     1.16700     0.00000
  34       0.00958     0.00000    -0.79750    -0.89421    -0.16793     0.00000
  35      -0.00494    -0.00000    -0.88701     0.77095     0.23182    -0.00000
  36       0.00000     0.35927    -0.00000    -0.00000    -0.00000     0.01371
  37       0.00000     0.00170     0.00000     0.00000     0.00000    -0.00199
  38      -0.00000     0.00098    -0.00000    -0.00000    -0.00000    -0.00144
  39      -0.00000     0.00345     0.00000    -0.00000    -0.00000    -0.21166
  40      -0.00000    -0.00118     0.00000     0.00000    -0.00000    -0.09547
  41       0.00000     0.00076    -0.00000    -0.00000     0.00000    -0.41773
  42      -0.00399     0.00000    -0.04729    -0.08429     0.02911    -0.00000
  43      -0.00072    -0.00000     0.09038    -0.05134    -0.01835    -0.00000
  44       0.00325    -0.00000    -0.03008    -0.01393    -0.09699    -0.00000
  45      -0.00000    -0.00102     0.00000     0.00000     0.00000    -0.00015
  46       0.00000    -0.00217    -0.00000    -0.00000    -0.00000    -0.00041
  47       0.00000    -1.65731     0.00000     0.00000     0.00000    -0.00353
  48      -0.00113     0.00000     0.25930    -0.04282    -0.03562    -0.00000
  49      -0.01506    -0.00000    -0.01634     0.08314    -0.25793     0.00000
  50       0.01279    -0.00000    -0.06080    -0.27567    -0.09911    -0.00000
  51       0.00000    -0.21996    -0.00000    -0.00000    -0.00000    -0.00915
  52      -0.00272     0.00000    -0.09738     0.06207     0.01914    -0.00000
  53      -0.00527     0.00000    -0.02004    -0.01382    -0.12217     0.00000
  54      -0.01004     0.00000     0.06114     0.11464    -0.00499    -0.00000
  55      -0.00000    -0.06206    -0.00000    -0.00000    -0.00000     0.00031

           19          20          21          22          23          24  
       ----------- ----------- ----------- ----------- ----------- -----------
   1      -0.00227    -0.00107     0.00000    -0.00124    -0.00144    -0.00000
   2      -0.00000     0.00000     0.00133     0.00000    -0.00000     0.00034
   3       0.00000     0.00000    -0.00003    -0.00000     0.00000    -0.00098
   4      -0.00000     0.00000     0.00079    -0.00000     0.00000    -0.00056
   5       0.00794     0.00375     0.00000     0.00435     0.00504     0.00000
   6      -0.00000     0.00000    -0.00197    -0.00000     0.00000     0.00080
   7       0.00000    -0.00000     0.00114    -0.00000     0.00000     0.00091
   8      -0.00000    -0.00000    -0.00054    -0.00000     0.00000    -0.00072
   9      -0.00000    -0.00000    -1.87193    -0.00000     0.00000    -0.00001
  10       0.00337     0.00159     0.00000     0.00184     0.00214    -0.00000
  11       0.00000    -0.00000     0.00004    -0.00000    -0.00000    -1.28787
  12      -0.00000    -0.00000     0.00009     0.00000    -0.00000     1.06855
  13      -0.00000     0.00000    -0.00002     0.00000    -0.00000     0.85793
  14      -0.00536    -0.00253    -0.00000    -0.00293    -0.00340     0.00000
  15       0.00000    -0.00000    -0.01202    -0.00000     0.00000     0.00062
  16      -0.00000    -0.00000     0.00293    -0.00000     0.00000     0.00299
  17      -0.00000     0.00000    -0.00023    -0.00000     0.00000    -0.00369
  18      -0.00606     0.00535    -0.00000    -0.00258    -0.00369    -0.00000
  19       3.78886     0.01211    -0.00000     0.00178     0.01482     0.00000
  20       0.01211     3.77570    -0.00000     0.00426     0.00788    -0.00000
  21      -0.00000    -0.00000     3.12939     0.00000    -0.00000    -0.00002
  22       0.00178     0.00426     0.00000     3.79920    -0.00021    -0.00000
  23       0.01482     0.00788    -0.00000    -0.00021     3.77610    -0.00000
  24       0.00000    -0.00000    -0.00002    -0.00000    -0.00000     3.15089
  25      -0.00000    -0.00000    -0.00001    -0.00000    -0.00000     0.00736
  26      -0.00000    -0.00000     0.00005    -0.00000     0.00000     0.00677
  27       1.99556     1.20376    -0.00000     0.00192     0.00927    -0.00000
  28       0.45157    -0.49012    -0.00000     0.00101     0.00261     0.00000
  29      -1.11607     1.92571    -0.00000     0.00192     0.00023    -0.00000
  30       0.00000    -0.00000     0.02814    -0.00000     0.00000     0.00009
  31       0.00000     0.00000     0.00390     0.00000    -0.00000     0.00824
  32      -0.00000     0.00000    -0.00217    -0.00000     0.00000     0.00959
  33      -0.00000    -0.00000    -0.00073     0.00000    -0.00000     0.00455
  34      -0.00000    -0.00000     0.00261    -0.00000     0.00000     0.00074
  35       0.00000    -0.00000     0.00489     0.00000    -0.00000     0.00042
  36      -0.02008    -0.00949     0.00000    -0.01098    -0.01274    -0.00000
  37       0.00362     0.00371     0.00000     2.20415     0.77084    -0.00000
  38       0.00754     0.00338    -0.00000    -0.77555     2.19186     0.00000
  39       0.42853     0.00429    -0.00000    -0.00032    -0.00129     0.00000
  40      -0.04117    -0.46794     0.00000     0.00033     0.00068     0.00000
  41      -0.20906     0.10560     0.00000    -0.00021     0.00009     0.00000
  42       0.00000     0.00000     0.00062    -0.00000     0.00000     0.00261
  43       0.00000    -0.00000    -0.00233     0.00000    -0.00000    -0.00025
  44       0.00000     0.00000     0.00063     0.00000    -0.00000    -0.00329
  45      -0.00012     0.00018    -0.00000    -0.46027     0.12914     0.00000
  46       0.00127     0.00073     0.00000    -0.12859    -0.46195     0.00000
  47       0.00516     0.00244    -0.00000     0.00283     0.00328    -0.00000
  48       0.00000    -0.00000     0.00801    -0.00000     0.00000    -0.00195
  49      -0.00000    -0.00000    -0.00123     0.00000    -0.00000    -0.01184
  50       0.00000     0.00000     0.00014     0.00000    -0.00000     0.00214
  51       0.01340     0.00633    -0.00000     0.00733     0.00851     0.00000
  52       0.00000    -0.00000    -0.02059     0.00000    -0.00000    -0.00071
  53      -0.00000    -0.00000    -0.00370    -0.00000     0.00000    -0.02828
  54       0.00000     0.00000     0.00572     0.00000    -0.00000    -0.01905
  55      -0.00046    -0.00022     0.00000    -0.00025    -0.00029    -0.00000

           25          26          27          28          29          30  
       ----------- ----------- ----------- ----------- ----------- -----------
   1       0.00000    -0.00000    -0.00155    -0.00110    -0.00015     0.00000
   2       0.00018     0.00049    -0.00000     0.00000    -0.00000     0.07734
   3      -0.00023    -0.00035    -0.00000    -0.00000    -0.00000     0.00546
   4      -0.00041     0.00008     0.00000     0.00000    -0.00000     0.03389
   5       0.00000     0.00000     0.00249     0.00176     0.00024     0.00000
   6       0.00048    -0.00032    -0.00000     0.00000    -0.00000    -0.67480
   7       0.00068     0.00065     0.00000    -0.00000     0.00000     0.47864
   8       0.00012    -0.00038     0.00000     0.00000    -0.00000    -0.09741
   9      -0.00002     0.00009    -0.00000     0.00000     0.00000    -0.01108
  10       0.00000     0.00000     0.00462     0.00327     0.00044    -0.00000
  11       1.08264    -0.82159    -0.00000    -0.00000    -0.00000    -0.00144
  12       0.10145    -1.53546    -0.00000    -0.00000     0.00000    -0.00281
  13       1.51165     0.69055     0.00000    -0.00000     0.00000     0.00144
  14      -0.00000     0.00000     0.00248     0.00175     0.00024     0.00000
  15      -0.00028    -0.00379     0.00000    -0.00000     0.00000    -1.48015
  16      -0.00322     0.00020     0.00000     0.00000    -0.00000     0.15185
  17      -0.00636    -0.00264    -0.00000     0.00000    -0.00000    -0.13545
  18      -0.00000    -0.00000     0.13670    -2.24027    -0.64814    -0.00000
  19      -0.00000    -0.00000     1.99556     0.45157    -1.11607     0.00000
  20      -0.00000    -0.00000     1.20376    -0.49012     1.92571    -0.00000
  21      -0.00001     0.00005    -0.00000    -0.00000    -0.00000     0.02814
  22      -0.00000    -0.00000     0.00192     0.00101     0.00192    -0.00000
  23      -0.00000     0.00000     0.00927     0.00261     0.00023     0.00000
  24       0.00736     0.00677    -0.00000     0.00000    -0.00000     0.00009
  25       3.10491    -0.00069    -0.00000     0.00000    -0.00000     0.00103
  26      -0.00069     3.13220    -0.00000     0.00000    -0.00000     0.00917
  27      -0.00000    -0.00000     3.57437     0.00276     0.00125     0.00000
  28       0.00000     0.00000     0.00276     3.58112     0.00224    -0.00000
  29      -0.00000    -0.00000     0.00125     0.00224     3.53378     0.00000
  30       0.00103     0.00917     0.00000    -0.00000     0.00000     3.04582
  31      -0.00584     0.00048    -0.00000    -0.00000    -0.00000     0.00367
  32       0.01410     0.00537    -0.00000     0.00000    -0.00000     0.00267
  33      -0.00475    -0.00077     0.00000     0.00000     0.00000     0.03068
  34       0.00637     0.00470     0.00000    -0.00000     0.00000    -0.09987
  35      -0.00430    -0.00067    -0.00000    -0.00000     0.00000    -0.13829
  36      -0.00000     0.00000    -0.01221    -0.00864    -0.00117    -0.00000
  37      -0.00000    -0.00000     0.01225     0.00462     0.00470     0.00000
  38       0.00000    -0.00000     0.02013     0.00532    -0.00102    -0.00000
  39       0.00000     0.00000     1.02500     0.82237    -0.40397     0.00000
  40       0.00000     0.00000    -0.81118     0.52269    -0.96515     0.00000
  41       0.00000     0.00000    -0.42641     0.97496     0.86123    -0.00000
  42       0.00304     0.00290    -0.00000    -0.00000    -0.00000    -0.05491
  43       0.00209     0.00034    -0.00000    -0.00000     0.00000     0.15432
  44       0.00440     0.00147    -0.00000    -0.00000    -0.00000    -0.06330
  45       0.00000     0.00000     0.00084    -0.00029    -0.00218     0.00000
  46       0.00000     0.00000    -0.01142    -0.00332    -0.00090    -0.00000
  47      -0.00000    -0.00000    -0.00378    -0.00268    -0.00036     0.00000
  48      -0.00053     0.00187     0.00000    -0.00000     0.00000    -0.07200
  49      -0.00088    -0.00306     0.00000     0.00000     0.00000     0.01405
  50       0.00466     0.00419    -0.00000    -0.00000    -0.00000     0.01172
  51      -0.00000    -0.00000     0.02957     0.02091     0.00283    -0.00000
  52      -0.00336    -0.00955    -0.00000    -0.00000     0.00000     0.01067
  53       0.00255    -0.00390     0.00000     0.00000    -0.00000     0.00544
  54      -0.01276    -0.01159    -0.00000    -0.00000    -0.00000    -0.01432
  55      -0.00000     0.00000    -0.01921    -0.01358    -0.00184    -0.00000

           31          32          33          34          35          36  
       ----------- ----------- ----------- ----------- ----------- -----------
   1       0.00000     0.00000    -0.00000     0.00000    -0.00000     0.26836
   2      -0.00504     0.03486     0.32005    -0.40631    -0.34785     0.00000
   3      -0.08170    -0.03384    -0.37018    -0.46430     0.21543    -0.00000
   4       0.03041    -0.07062    -0.39459     0.09447    -0.47144    -0.00000
   5       0.00000     0.00000    -0.00000     0.00000    -0.00000    -1.04443
   6       0.09453     0.47904     0.54426     0.61740     0.90424    -0.00000
   7      -0.03137     0.68244     1.05672    -0.57351    -0.24044    -0.00000
   8      -0.82980     0.02312    -0.31773    -0.88742     0.79073     0.00000
   9      -0.00151     0.00086    -0.00018     0.00045     0.00092     0.00000
  10      -0.00000    -0.00000     0.00000    -0.00000     0.00000    -0.80605
  11      -0.00387    -0.00162    -0.01010    -0.00015    -0.00110    -0.00000
  12       0.00122     0.00157     0.00519    -0.00224     0.00222     0.00000
  13       0.00136     0.00694     0.00304     0.00958    -0.00494     0.00000
  14       0.00000     0.00000    -0.00000     0.00000    -0.00000     0.35927
  15       0.15610     0.12614     0.06345    -0.79750    -0.88701    -0.00000
  16       1.48593    -0.08271    -0.26241    -0.89421     0.77095    -0.00000
  17      -0.07728    -1.48722     1.16700    -0.16793     0.23182    -0.00000
  18      -0.00000     0.00000     0.00000     0.00000    -0.00000     0.01371
  19       0.00000    -0.00000    -0.00000    -0.00000     0.00000    -0.02008
  20       0.00000     0.00000    -0.00000    -0.00000    -0.00000    -0.00949
  21       0.00390    -0.00217    -0.00073     0.00261     0.00489     0.00000
  22       0.00000    -0.00000     0.00000    -0.00000     0.00000    -0.01098
  23      -0.00000     0.00000    -0.00000     0.00000    -0.00000    -0.01274
  24       0.00824     0.00959     0.00455     0.00074     0.00042    -0.00000
  25      -0.00584     0.01410    -0.00475     0.00637    -0.00430    -0.00000
  26       0.00048     0.00537    -0.00077     0.00470    -0.00067     0.00000
  27      -0.00000    -0.00000     0.00000     0.00000    -0.00000    -0.01221
  28      -0.00000     0.00000     0.00000    -0.00000    -0.00000    -0.00864
  29      -0.00000    -0.00000     0.00000     0.00000     0.00000    -0.00117
  30       0.00367     0.00267     0.03068    -0.09987    -0.13829    -0.00000
  31       3.05775     0.00830     0.05647     0.13396    -0.09573    -0.00000
  32       0.00830     3.05085     0.16675    -0.01331     0.04306    -0.00000
  33       0.05647     0.16675     3.44492     0.00888    -0.01024     0.00000
  34       0.13396    -0.01331     0.00888     3.43820    -0.01500    -0.00000
  35      -0.09573     0.04306    -0.01024    -0.01500     3.42987     0.00000
  36      -0.00000    -0.00000     0.00000    -0.00000     0.00000     0.84849
  37      -0.00000     0.00000    -0.00000     0.00000    -0.00000    -0.00839
  38       0.00000    -0.00000     0.00000    -0.00000     0.00000    -0.00482
  39       0.00000    -0.00000    -0.00000    -0.00000     0.00000     0.00300
  40      -0.00000    -0.00000     0.00000     0.00000     0.00000    -0.00103
  41       0.00000     0.00000    -0.00000    -0.00000    -0.00000     0.00066
  42       0.16042     0.05440     0.64226     1.30139    -0.23266    -0.00000
  43       0.07269    -0.04327    -0.01449    -0.23351    -1.43865     0.00000
  44       0.01275    -0.16090    -1.31996     0.62195    -0.08193     0.00000
  45      -0.00000     0.00000    -0.00000     0.00000    -0.00000    -0.00089
  46       0.00000    -0.00000     0.00000    -0.00000     0.00000    -0.00189
  47       0.00000     0.00000    -0.00000     0.00000    -0.00000    -4.08302
  48      -0.00402     0.01656    -0.01620    -0.23822    -0.40137    -0.00000
  49       0.02795     0.07236    -0.46842    -0.03340     0.03664     0.00000
  50      -0.08113     0.03122    -0.05264     0.41355    -0.24286     0.00000
  51      -0.00000    -0.00000     0.00000    -0.00000     0.00000    -2.12145
  52       0.01425    -0.01357    -0.02178     0.11114     0.62614    -0.00000
  53      -0.02049     0.03155    -0.61859     0.17304    -0.05833    -0.00000
  54       0.04237    -0.01487    -0.17308    -0.61730     0.11697    -0.00000
  55      -0.00000    -0.00000     0.00000    -0.00000     0.00000     0.52624

           37          38          39          40          41          42  
       ----------- ----------- ----------- ----------- ----------- -----------
   1      -0.00107    -0.00061    -0.00025     0.00009    -0.00006     0.00000
   2      -0.00000     0.00000    -0.00000    -0.00000     0.00000    -0.02201
   3       0.00000    -0.00000     0.00000    -0.00000     0.00000    -0.09039
   4       0.00000    -0.00000    -0.00000    -0.00000     0.00000    -0.00247
   5       0.00171     0.00098    -0.00085     0.00029    -0.00019     0.00000
   6       0.00000    -0.00000    -0.00000    -0.00000     0.00000     0.08637
   7       0.00000    -0.00000     0.00000     0.00000    -0.00000    -0.00418
   8       0.00000    -0.00000    -0.00000     0.00000    -0.00000    -0.14023
[...]
   7      -0.00089     0.00000    -0.00000    -0.00000     0.00000     0.00000
   8      -0.00101    -0.00000    -0.00000    -0.00000    -0.00000     0.00000
   9      -0.00535    -0.00001     0.00000    -0.00000    -0.00000    -0.00000
  10       0.00318    -0.00000     0.00000     0.00000    -0.00000    -0.00000
  11       0.00360     0.00000     0.00000     0.00000     0.00000    -0.00000
  12      -0.00558    -0.00000     0.00000    -0.00000    -0.00000    -0.00000
  13       0.00332    -0.00000     0.00000     0.00000    -0.00000    -0.00000
  14       0.00374     0.00000     0.00000     0.00000     0.00000    -0.00000
  15       0.00077     0.00000    -0.00000     0.00000     0.00000     0.00000
  16      -0.00046     0.00000    -0.00000    -0.00000     0.00000     0.00000
  17      -0.00051    -0.00000    -0.00000    -0.00000    -0.00000     0.00000
  18      -0.00000    -0.00000     0.00000     0.91986     0.38655     0.04262
  19       0.00000     0.00000     0.00000    -0.40371     1.16521     0.22296
  20      -0.00000     0.00000    -0.00000     0.62232     0.08774     1.71313
  21       0.00000     0.00000    -0.00000    -0.09915     0.19206    -0.57654
  22       0.00000    -0.00000    -0.00000    -0.86453     1.39609     0.30039
  23       0.00000    -0.00000     0.00000    -0.82069    -0.57860     0.55388
  24       0.00000     0.00000    -0.00000    -0.63257    -0.26581     0.00498
  25      -0.00000    -0.00000    -0.00000     0.27763    -0.80131    -0.15319
  26       0.00000    -0.00000     0.00000    -0.42797    -0.06034    -1.17700
  27       0.00000    -0.00000     0.00000     0.06820    -0.13206     0.43036
  28      -0.00000     0.00000     0.00000     0.59454    -0.96009    -0.20638
  29      -0.00000     0.00000    -0.00000     0.56441     0.39792    -0.34629
  30      -0.00000     0.00000    -0.00000     0.23752     0.09981     0.01597
  31       0.00000    -0.00000    -0.00000    -0.10424     0.30087     0.05749
  32      -0.00000    -0.00000     0.00000     0.16069     0.02265     0.44175
  33       0.00000    -0.00000     0.00000    -0.02560     0.04960    -0.14368
  34       0.00000     0.00000     0.00000    -0.22323     0.36048     0.07746
  35       0.00000     0.00000    -0.00000    -0.21191    -0.14940     0.14781
  36       0.41812     0.39544    -0.29025     0.00000     0.00000     0.00000
  37       0.08880    -1.18746    -1.37976    -0.00000     0.00000     0.00000
  38       2.30544    -0.73000     0.82970    -0.00000    -0.00000     0.00000
  39      -0.71639    -1.58773     1.59658     0.00000     0.00000     0.00000
  40      -1.30554     2.18613     1.64089    -0.00000     0.00000     0.00000
  41      -0.53647     0.40142    -0.72585     0.00000     0.00000     0.00000
  42       0.30576     0.70707     0.60169    -0.00000     0.00000     0.00000
  43       0.07499     0.90691    -1.42673    -0.00000    -0.00000     0.00000
  44      -1.00700    -0.93375    -0.42530    -0.00000     0.00000     0.00000
  45      -0.79382    -0.05897     0.19901    -0.00000    -0.00000     0.00000
  46      -0.19117    -0.18511     0.13587     0.00000     0.00000     0.00000
  47      -0.04468     0.55587     0.64588    -0.00000     0.00000     0.00000
  48      -1.08536     0.34172    -0.38839    -0.00000    -0.00000     0.00000
  49       0.34127     0.74324    -0.74738     0.00000     0.00000     0.00000
  50       0.61270    -1.02336    -0.76812     0.00000    -0.00000    -0.00000
  51       0.25683    -0.18790     0.33978     0.00000     0.00000     0.00000
  52      -0.14651    -0.33099    -0.28166    -0.00000     0.00000     0.00000
  53      -0.03859    -0.42454     0.66787    -0.00000    -0.00000     0.00000
  54       0.46959     0.43710     0.19909    -0.00000     0.00000     0.00000
  55       0.36915     0.02760    -0.09316    -0.00000    -0.00000     0.00000

           49          50          51          52          53          54  
       ----------- ----------- ----------- ----------- ----------- -----------
   1      -0.00001    -0.00001     5.41594    -0.00000     0.00000     0.00000
   2      -0.00001    -0.00002     9.99578     0.00000     0.00000     0.00000
   3       0.00001     0.00001    -5.35031     0.00001    -0.00000    -0.00000
   4      -0.00002    -0.00003     8.92449    -0.00002     0.00000     0.00001
   5       0.00000     0.00000     0.15918    -0.00000     0.00000     0.00000
   6      -0.00000     0.00000    -0.00000    -1.82759    -1.36286    -2.05841
   7      -0.00000    -0.00000    -0.00000    -0.32027    -2.40792     1.87802
   8       0.00000    -0.00000    -0.00000    -2.45047     1.33115     1.28973
   9       0.00000    -0.00000     0.00001     9.51484     7.10132    10.72558
  10       0.00000     0.00000     0.00000     1.66742    12.54676    -9.78565
  11      -0.00000     0.00000     0.00002    12.75771    -6.93609    -6.72028
  12       0.00000    -0.00000     0.00000     2.07113     1.54515     2.33374
  13       0.00000     0.00000     0.00000     0.36295     2.73000    -2.12922
  14      -0.00000     0.00000     0.00001     2.77701    -1.50920    -1.46224
  15      -0.00000     0.00000    -0.00000    -0.24614    -0.18365    -0.27738
  16      -0.00000    -0.00000    -0.00000    -0.04313    -0.32448     0.25307
  17       0.00000    -0.00000    -0.00000    -0.33002     0.17938     0.17380
  18       0.14392    -0.65932    -1.89351    -0.00000     0.00000     0.00000
  19       1.59846     0.48100     0.00073     0.00000     0.00000    -0.00000
  20      -0.42287     0.92087     0.00557     0.00000     0.00000     0.00000
  21      -0.37328     0.96235    -1.89552    -0.00000     0.00000     0.00000
  22      -1.09441    -0.61018     0.00097     0.00000     0.00000    -0.00000
  23       0.22937    -0.30302    -1.89185    -0.00000     0.00000     0.00000
  24      -0.09859     0.45172    -4.84958     0.00001    -0.00000    -0.00000
  25      -1.09513    -0.32954    -0.00053    -0.00000    -0.00000     0.00000
  26       0.28971    -0.63090    -0.00406    -0.00000    -0.00000    -0.00000
  27       0.25575    -0.65930    -4.84812     0.00001    -0.00000    -0.00000
  28       0.74980     0.41804    -0.00071    -0.00000    -0.00000     0.00000
  29      -0.15713     0.20762    -4.85079     0.00001    -0.00000    -0.00000
  30       0.03700    -0.16950    -0.94857     0.00000    -0.00000    -0.00000
  31       0.41095     0.12366     0.00022     0.00000     0.00000    -0.00000
  32      -0.10871     0.23675     0.00169     0.00000     0.00000     0.00000
  33      -0.09597     0.24741    -0.94918     0.00000    -0.00000    -0.00000
  34      -0.28136    -0.15687     0.00030     0.00000     0.00000    -0.00000
  35       0.05897    -0.07790    -0.94807     0.00000    -0.00000    -0.00000
  36      -0.00000     0.00000    -0.00000    -4.76320    -3.55559    -5.37024
  37       0.00000     0.00000    -0.00000    -0.83478    -6.28212     4.89960
  38       0.00000    -0.00000    -0.00001    -6.38707     3.47272     3.36460
  39      -0.00000     0.00000    -0.00000    -4.76304    -3.55557    -5.37014
  40       0.00000    -0.00000    -0.00000    -0.00025    -0.00026     0.00018
  41      -0.00000     0.00000    -0.00000    -4.76396    -3.55550    -5.37017
  42      -0.00000    -0.00000    -0.00000    -0.83469    -6.28201     4.89955
  43      -0.00000     0.00000    -0.00001    -6.38639     3.47277     3.36480
  44      -0.00000    -0.00000    -0.00000    -0.83486    -6.28215     4.89971
  45       0.00000    -0.00000    -0.00001    -6.38679     3.47290     3.36485
  46      -0.00000     0.00000    -0.00000    -2.58364    -1.92771    -2.91154
  47      -0.00000    -0.00000    -0.00000    -0.45278    -3.40594     2.65635
  48       0.00000    -0.00000    -0.00001    -3.46434     1.88266     1.82397
  49      -0.00000    -0.00000    -0.00000    -2.58360    -1.92768    -2.91140
  50      -0.00000    -0.00000     0.00000    -0.00007    -0.00036     0.00025
  51       0.00000     0.00000    -0.00000    -2.58386    -1.92757    -2.91144
  52      -0.00000    -0.00000    -0.00000    -0.45276    -3.40579     2.65629
  53       0.00000    -0.00000    -0.00001    -3.46415     1.88272     1.82425
  54       0.00000     0.00000    -0.00000    -0.45280    -3.40599     2.65651
  55      -0.00000    -0.00000    -0.00001    -3.46426     1.88291     1.82433

           55  
       -----------
   1       3.08508
   2       8.79426
   3      -0.50295
   4       8.81695
   5       0.70840
   6       0.00000
   7       0.00000
   8       0.00000
   9      -0.00001
  10      -0.00000
  11      -0.00002
  12      -0.00000
  13      -0.00000
  14      -0.00000
  15       0.00000
  16       0.00000
  17       0.00000
  18      -3.54792
  19      -0.00007
  20      -0.00051
  21      -3.54773
  22      -0.00009
  23      -3.54807
  24      -4.24690
  25       0.00003
  26       0.00020
  27      -4.24697
  28       0.00003
  29      -4.24684
  30      -1.31086
  31      -0.00001
  32      -0.00006
  33      -1.31084
  34      -0.00001
  35      -1.31088
  36       0.00000
  37       0.00000
  38       0.00001
  39       0.00000
  40      -0.00000
  41       0.00000
  42       0.00000
  43       0.00001
  44       0.00000
  45       0.00001
  46       0.00000
  47       0.00000
  48       0.00001
  49       0.00000
  50       0.00000
  51       0.00000
  52       0.00000
  53       0.00001
  54       0.00000
  55       0.00001
  int_init: cando_txs set to always be  F
                                NWChem TDDFT Module
                                -------------------


            General Information
            -------------------
           No. of orbitals :     110
            Alpha orbitals :      55
             Beta orbitals :      55
        Alpha frozen cores :       0
         Beta frozen cores :       0
     Alpha frozen virtuals :       0
      Beta frozen virtuals :       0
         Spin multiplicity :       3
    Number of AO functions :      55
        Use of symmetry is : off
      Symmetry adaption is : off
         Schwarz screening :  0.10D-07

              XC Information
              --------------
              Hartree-Fock (Exact) Exchange   1.00          
              LC-wPBE(h)Exchange Functional   1.00          
     Perdew 1991 LDA Correlation Functional   1.00 local    
    PerdewBurkeErnz. Correlation Functional   1.00 non-local
           Alpha           :  0.00
           Beta            :  1.00
           Gamma           :  0.43

             TDDFT Information
             -----------------
          Calculation type : TDDFT             
         Wavefunction type : Unrestricted
          No. of electrons :       8
           Alpha electrons :       5
            Beta electrons :       3
              No. of roots :       5
          Max subspacesize :    5000
            Max iterations :     100
               Target root :       1
           Target symmetry : none
      Symmetry restriction : off
                 Algorithm : Optimal
        Davidson threshold :  0.10D-03

            Memory Information
            ------------------
          Available GA space size is       52428793950 doubles
          Available MA space size is        4194413092 doubles
          Length of a trial vector is          250     156
          Algorithm : Incore multiple tensor contraction
          Estimated peak GA usage is           8632260 doubles
          Estimated peak MA usage is             18000 doubles

    5 smallest eigenvalue differences (eV) 
--------------------------------------------------------
  No. Spin  Occ  Vir  Irrep   E(Occ)    E(Vir)   E(Diff)
--------------------------------------------------------
    1    2    3    4 a        -0.471    -0.056    11.281
    2    2    3    5 a        -0.471    -0.056    11.281
    3    2    3    6 a        -0.471     0.124    16.179
    4    2    3    7 a        -0.471     0.155    17.031
    5    2    3    8 a        -0.471     0.161    17.208
--------------------------------------------------------

  Entering Davidson iterations
  Unrestricted

  Iter   NTrls   NConv    DeltaV     DeltaE      Time   
  ----  ------  ------  ---------  ---------  --------- 
    1      5       0     0.23E+00   0.10+100        2.0
    2     15       0     0.83E-01   0.25E-01        3.3
 ------------------------------------------------------------------------
 tddft_diagon: negative excitation energy                   0
 ------------------------------------------------------------------------
 ------------------------------------------------------------------------
 tddft_diagon: negative excitation energy                   0
 ------------------------------------------------------------------------
 ------------------------------------------------------------------------
  current input line : 
     0: 
 ------------------------------------------------------------------------
 ------------------------------------------------------------------------
 This type of error is most commonly associated with calculations not reaching convergence criteria
 ------------------------------------------------------------------------
 For more information see the NWChem manual at https://nwchemgit.github.io
 tddft_diagon: negative excitation energy                   0
 ------------------------------------------------------------------------
 ------------------------------------------------------------------------
  current input line : 
     0: 
 ------------------------------------------------------------------------
 ------------------------------------------------------------------------
 This type of error is most commonly associated with calculations not reaching convergence criteria
 ------------------------------------------------------------------------
 For more information see the NWChem manual at https://nwchemgit.github.io


 For further details see manual section:                                                                                                                                                                                                                                                                
 tddft_diagon: negative excitation energy                   0
 ------------------------------------------------------------------------
 ------------------------------------------------------------------------
  current input line : 
     0: 
 ------------------------------------------------------------------------
 ------------------------------------------------------------------------
 This type of error is most commonly associated with calculations not reaching convergence criteria
 ------------------------------------------------------------------------
 For more information see the NWChem manual at https://nwchemgit.github.io


 For further details see manual section:                                                                                                                                                                                                                                                                
 tddft_diagon: negative excitation energy                   0
 ------------------------------------------------------------------------
 ------------------------------------------------------------------------
  current input line : 
     0: 
 ------------------------------------------------------------------------
 ------------------------------------------------------------------------
 This type of error is most commonly associated with calculations not reaching convergence criteria
 ------------------------------------------------------------------------
 For more information see the NWChem manual at https://nwchemgit.github.io


 For further details see manual section:                                                                                                                                                                                                                                                                
 tddft_diagon: negative excitation energy                   0
 ------------------------------------------------------------------------
 ------------------------------------------------------------------------
  current input line : 
     0: 
 ------------------------------------------------------------------------
 ------------------------------------------------------------------------
 This type of error is most commonly associated with calculations not reaching convergence criteria
 ------------------------------------------------------------------------
 For more information see the NWChem manual at https://nwchemgit.github.io


 For further details see manual section:                                                                                                                                                                                                                                                                
 tddft_diagon: negative excitation energy                   0
 ------------------------------------------------------------------------
 ------------------------------------------------------------------------
  current input line : 
     0: 
 ------------------------------------------------------------------------
 ------------------------------------------------------------------------
 This type of error is most commonly associated with calculations not reaching convergence criteria
 ------------------------------------------------------------------------
 For more information see the NWChem manual at https://nwchemgit.github.io


 For further details see manual section:                                                                                                                                                                                                                                                                
 tddft_diagon: negative excitation energy                   0
 ------------------------------------------------------------------------
 ------------------------------------------------------------------------
  current input line : 
     0: 
 ------------------------------------------------------------------------
 ------------------------------------------------------------------------
 This type of error is most commonly associated with calculations not reaching convergence criteria
 ------------------------------------------------------------------------
 For more information see the NWChem manual at https://nwchemgit.github.io


 For further details see manual section:                                                                                                                                                                                                                                                                
  current input line : 
    23:  task tddft energy
 ------------------------------------------------------------------------
 ------------------------------------------------------------------------
 This type of error is most commonly associated with calculations not reaching convergence criteria
 ------------------------------------------------------------------------
 For more information see the NWChem manual at https://nwchemgit.github.io


 For further details see manual section:                                                                                                                                                                                                                                                                


 For further details see manual section:                                                                                                                                                                                                                                                                
