 argument  1 = /home/aditisingh4812/nw_chem/nwchem-run/nwchem-run/tddft/open/open_atom/geom-MOL/o.nw
                                         
                                         


             Northwest Computational Chemistry Package (NWChem) 7.2.3
             --------------------------------------------------------


                    Environmental Molecular Sciences Laboratory
                       Pacific Northwest National Laboratory
                                Richland, WA 99352

                              Copyright (c) 1994-2022
                       Pacific Northwest National Laboratory
                            Battelle Memorial Institute

             NWChem is an open-source computational chemistry package
                        distributed under the terms of the
                      Educational Community License (ECL) 2.0
             A copy of the license is included with this distribution
                              in the LICENSE.TXT file

                                  ACKNOWLEDGMENT
                                  --------------

            This software and its documentation were developed at the
            EMSL at Pacific Northwest National Laboratory, a multiprogram
            national laboratory, operated for the U.S. Department of Energy
            by Battelle under Contract Number DE-AC05-76RL01830. Support
            for this work was provided by the Department of Energy Office
            of Biological and Environmental Research, Office of Basic
            Energy Sciences, and the Office of Advanced Scientific Computing.


           Job information
           ---------------

    hostname        = p17
    program         = /home/aditisingh4812/nw_chem/nwchem-7.2.3-release.revision-d690e065-srconly.2024-08-27/nwchem-7.2.3/bin/LINUX64/nwchem
    date            = Thu May  8 11:54:13 2025

    compiled        = Mon_Apr_07_18:51:54_2025
    source          = /home/aditisingh4812/nw_chem/nwchem-7.2.3-release.revision-d690e065-srconly.2024-08-27/nwchem-7.2.3
    nwchem branch   = 7.2.3
    nwchem revision = d690e065
    ga revision     = 5.8.0
    use scalapack   = F
    input           = /home/aditisingh4812/nw_chem/nwchem-run/nwchem-run/tddft/open/open_atom/geom-MOL/o.nw
    prefix          = o.
    data base       = ./o.db
    status          = startup
    nproc           =        8
    time left       =     -1s



           Memory information
           ------------------

    heap     = 2621439998 doubles =  20000.0 Mbytes
    stack    = 2621439995 doubles =  20000.0 Mbytes
    global   = 6553600000 doubles =  50000.0 Mbytes (distinct from heap & stack)
    total    = ********** doubles =  90000.0 Mbytes
    verify   = yes
    hardfail = no 


           Directory information
           ---------------------

  0 permanent = .
  0 scratch   = .




                                NWChem Input Module
                                -------------------



 Scaling coordinates for geometry "geometry" by  1.889725989
 (inverse scale =  0.529177249)



                             Geometry "geometry" -> ""
                             -------------------------

 Output coordinates in angstroms (scale by  1.889725989 to convert to a.u.)

  No.       Tag          Charge          X              Y              Z
 ---- ---------------- ---------- -------------- -------------- --------------
    1 O                    8.0000     0.00000000     0.00000000     0.00000000

      Atomic Mass 
      ----------- 

      O                 15.994910


 Effective nuclear repulsion energy (a.u.)       0.0000000000

            Nuclear Dipole moment (a.u.) 
            ----------------------------
        X                 Y               Z
 ---------------- ---------------- ----------------
     0.0000000000     0.0000000000     0.0000000000


            XYZ format geometry
            -------------------
     1
 geometry
 O                     0.00000000     0.00000000     0.00000000



 Summary of "ao basis" -> "" (cartesian)
 ------------------------------------------------------------------------------
       Tag                 Description            Shells   Functions and Types
 ---------------- ------------------------------  ------  ---------------------
 *                        aug-cc-pVTZ                 on all atoms 


  pbe96 is a nonlocal functional; adding pw91lda local functional. 

                                 NWChem DFT Module
                                 -----------------


                      Basis "ao basis" -> "ao basis" (cartesian)
                      -----
  O (Oxygen)
  ----------
            Exponent  Coefficients 
       -------------- ---------------------------------------------------------
  1 S  1.53300000E+04  0.000508
  1 S  2.29900000E+03  0.003929
  1 S  5.22400000E+02  0.020243
  1 S  1.47300000E+02  0.079181
  1 S  4.75500000E+01  0.230687
  1 S  1.67600000E+01  0.433118
  1 S  6.20700000E+00  0.350260
  1 S  6.88200000E-01 -0.008154

  2 S  1.53300000E+04 -0.000115
  2 S  2.29900000E+03 -0.000895
  2 S  5.22400000E+02 -0.004636
  2 S  1.47300000E+02 -0.018724
  2 S  4.75500000E+01 -0.058463
  2 S  1.67600000E+01 -0.136463
  2 S  6.20700000E+00 -0.175740
  2 S  6.88200000E-01  0.603418

  3 S  1.75200000E+00  1.000000

  4 S  2.38400000E-01  1.000000

  5 S  7.37600000E-02  1.000000

  6 P  3.44600000E+01  0.015928
  6 P  7.74900000E+00  0.099740
  6 P  2.28000000E+00  0.310492

  7 P  7.15600000E-01  1.000000

  8 P  2.14000000E-01  1.000000

  9 P  5.97400000E-02  1.000000

 10 D  2.31400000E+00  1.000000

 11 D  6.45000000E-01  1.000000

 12 D  2.14000000E-01  1.000000

 13 F  1.42800000E+00  1.000000

 14 F  5.00000000E-01  1.000000



 Summary of "ao basis" -> "ao basis" (cartesian)
 ------------------------------------------------------------------------------
       Tag                 Description            Shells   Functions and Types
 ---------------- ------------------------------  ------  ---------------------
 O                        aug-cc-pVTZ               14       55   5s4p3d2f




 Summary of "ao basis" -> "ao basis" (cartesian)
 ------------------------------------------------------------------------------
       Tag                 Description            Shells   Functions and Types
 ---------------- ------------------------------  ------  ---------------------
 O                        aug-cc-pVTZ               14       55   5s4p3d2f




                         Geometry "geometry" -> "geometry"
                         ---------------------------------

 Output coordinates in angstroms (scale by  1.889725989 to convert to a.u.)

  No.       Tag          Charge          X              Y              Z
 ---- ---------------- ---------- -------------- -------------- --------------
    1 O                    8.0000     0.00000000     0.00000000     0.00000000

      Atomic Mass 
      ----------- 

      O                 15.994910


 Effective nuclear repulsion energy (a.u.)       0.0000000000

            Nuclear Dipole moment (a.u.) 
            ----------------------------
        X                 Y               Z
 ---------------- ---------------- ----------------
     0.0000000000     0.0000000000     0.0000000000


                      Basis "ao basis" -> "ao basis" (cartesian)
                      -----
  O (Oxygen)
  ----------
            Exponent  Coefficients 
       -------------- ---------------------------------------------------------
  1 S  1.53300000E+04  0.510782
  1 S  2.29900000E+03  0.952032
  1 S  5.22400000E+02  1.614331
  1 S  1.47300000E+02  2.443365
  1 S  4.75500000E+01  3.048606
  1 S  1.67600000E+01  2.618346
  1 S  6.20700000E+00  1.005234
  1 S  6.88200000E-01 -0.004496

  2 S  1.53300000E+04 -0.193666
  2 S  2.29900000E+03 -0.363225
  2 S  5.22400000E+02 -0.619219
  2 S  1.47300000E+02 -0.967719
  2 S  4.75500000E+01 -1.294024
  2 S  1.67600000E+01 -1.381716
  2 S  6.20700000E+00 -0.844754
  2 S  6.88200000E-01  0.557318

  3 S  1.75200000E+00  1.085327

  4 S  2.38400000E-01  0.243159

  5 S  7.37600000E-02  0.100873

  6 P  3.44600000E+01  4.898875
  6 P  7.74900000E+00  4.750261
  6 P  2.28000000E+00  3.204498

  7 P  7.15600000E-01  0.938162

  8 P  2.14000000E-01  0.207471

  9 P  5.97400000E-02  0.042099

 10 D  2.31400000E+00  7.145709

 11 D  6.45000000E-01  0.764080

 12 D  2.14000000E-01  0.110824

 13 F  1.42800000E+00  3.281655

 14 F  5.00000000E-01  0.309483



    Basis function labels
    ---------------------
       No.  Atm El Type
       ---  --- -- ----
        1    1 O  s          
        2    1 O  s          
        3    1 O  s          
        4    1 O  s          
        5    1 O  s          
        6    1 O  px         
        7    1 O  py         
        8    1 O  pz         
        9    1 O  px         
       10    1 O  py         
       11    1 O  pz         
       12    1 O  px         
       13    1 O  py         
       14    1 O  pz         
       15    1 O  px         
       16    1 O  py         
       17    1 O  pz         
       18    1 O  dxx        
       19    1 O  dxy        
       20    1 O  dxz        
       21    1 O  dyy        
       22    1 O  dyz        
       23    1 O  dzz        
       24    1 O  dxx        
       25    1 O  dxy        
       26    1 O  dxz        
       27    1 O  dyy        
       28    1 O  dyz        
       29    1 O  dzz        
       30    1 O  dxx        
       31    1 O  dxy        
       32    1 O  dxz        
       33    1 O  dyy        
       34    1 O  dyz        
       35    1 O  dzz        
       36    1 O  fxxx       
       37    1 O  fxxy       
       38    1 O  fxxz       
       39    1 O  fxyy       
       40    1 O  fxyz       
       41    1 O  fxzz       
       42    1 O  fyyy       
       43    1 O  fyyz       
       44    1 O  fyzz       
       45    1 O  fzzz       
       46    1 O  fxxx       
       47    1 O  fxxy       
       48    1 O  fxxz       
       49    1 O  fxyy       
       50    1 O  fxyz       
       51    1 O  fxzz       
       52    1 O  fyyy       
       53    1 O  fyyz       
       54    1 O  fyzz       
       55    1 O  fzzz       
  int_init: cando_txs set to always be  F

 Schwarz integral screening summary 
 ---------------------------------- 

        No. of atom pairs =       1
       No. of shell pairs =     105

 Atomic screening 

   value      no.     value      no.     value      no.     value      no.   
  -------- ------    -------- ------    -------- ------    -------- ------   
  0.00D+00      0    1.00D-13      0    1.00D-12      0    1.00D-11      0
  1.00D-10      0    1.00D-09      0    1.00D-08      0    1.00D-07      0
  1.00D-06      0    1.00D-05      0    1.00D-04      0    1.00D-03      0
  1.00D-02      0    1.00D-01      0    1.00D+00      1    1.00D+01      0


 Shell screening 

   value      no.     value      no.     value      no.     value      no.   
  -------- ------    -------- ------    -------- ------    -------- ------   
  0.00D+00      0    1.00D-13      0    1.00D-12      0    1.00D-11      0
  1.00D-10      0    1.00D-09      0    1.00D-08      0    1.00D-07      0
  1.00D-06      0    1.00D-05      0    1.00D-04      0    1.00D-03      0
  1.00D-02      5    1.00D-01     30    1.00D+00     70    1.00D+01      0


  Caching 1-el integrals 
  atom                     1  - neighbor  & S                     1   10.000000000000000       exp AB    5.9740000000000043E-002   5.9740000000000043E-002
 zmins =     0.059740000    0.059740000 lprod =   2 range =        13.66 acc   0.10D-06
 sh     0.000000000
  Center:                     1  Radial Pts. & Wghts. 
    1        0.000012254           5.5208285E-15
    2        0.000098037           1.4133874E-12
    3        0.000330882           3.6227419E-11
    4        0.000784354           3.6194043E-10
    5        0.001532073           2.1580687E-09
    6        0.002647758           9.2840223E-09
    7        0.004205289           3.1887386E-08
    8        0.006278766           9.2889170E-08
    9        0.008942598           2.3862323E-07
   10        0.012271593           5.5517740E-07
   11        0.016341065           1.1922819E-06
   12        0.021226958           2.3969262E-06
   13        0.027005980           4.5592715E-06
   14        0.033755751           8.2738731E-06
   15        0.041554976           1.4419761E-05
   16        0.050483619           2.4263559E-05
   17        0.060623113           3.9590583E-05
   18        0.072056576           6.2869782E-05
   19        0.084869052           9.7459522E-05
   20        0.099147779           1.4786255E-04
   21        0.114982478           2.2004022E-04
   22        0.132465667           3.2179800E-04
   23        0.151693016           4.6325703E-04
   24        0.172763728           6.5742948E-04
   25        0.195780959           9.2091938E-04
   26        0.220852289           1.2747755E-03
   27        0.248090233           1.7455293E-03
   28        0.277612815           2.3664571E-03
   29        0.309544200           3.1791182E-03
   30        0.344015406           4.2352292E-03
   31        0.381165093           5.5989521E-03
   32        0.421140450           7.3496945E-03
   33        0.464098194           9.5855417E-03
   34        0.510205700           1.2427477E-02
   35        0.559642275           1.6024584E-02
   36        0.612600614           2.0560485E-02
   37        0.669288456           2.6261332E-02
   38        0.729930493           3.3405772E-02
   39        0.794770552           4.2337422E-02
   40        0.864074135           5.3480564E-02
   41        0.938131363           6.7359993E-02
   42        1.017260411           8.4626252E-02
   43        1.101811552           1.0608791E-01
   44        1.192171918           1.3275315E-01
   45        1.288771170           1.6588360E-01
   46        1.392088261           2.0706480E-01
   47        1.502659587           2.5829893E-01
   48        1.621088863           3.2212799E-01
   49        1.748059191           4.0179929E-01
   50        1.884347932           5.0148971E-01
   51        2.030845207           6.2661350E-01
   52        2.188577140           7.8424997E-01
   53        2.358735387           9.8374623E-01
   54        2.542715105           1.2375797E+00
   55        2.742164448           1.5626143E+00
   56        2.959050044           1.9819639E+00
   57        3.195745097           2.5278203E+00
   58        3.455150191           3.2458462E+00
   59        3.740862532           4.2021968E+00
   60        4.057419014           5.4951049E+00
   61        4.410655441           7.2747252E+00
   62        4.808255669           9.7786492E+00
   63        5.260625532           1.3398901E+01
   64        5.782353395           1.8816687E+01
   65        6.394804227           2.7296002E+01
   66        7.131100196           4.1392875E+01
   67        8.046729837           6.6923283E+01
   68        9.245714414           1.1962145E+02
   69       10.961584782           2.5601053E+02
   70       13.939518331           8.4018451E+02
     irreducible set of Lebedev Angular points ;
  0.009523809523810  1.000000000000000  0.000000000000000  0.000000000000000
  0.032142857142857  0.577350269189626  0.577350269189626  0.577350269189626
  0.028571428571429  0.459700843380983  0.000000000000000  0.888073833977115
   total no. of   reducible points:  38; test:  1.00000000
  0.012698412698413  1.000000000000000  0.000000000000000  0.000000000000000
  0.022574955908289  0.707106781186547  0.707106781186547  0.000000000000000
  0.021093750000000  0.577350269189626  0.577350269189626  0.577350269189626
  0.020173335537919  0.301511344577764  0.301511344577764  0.904534033733291
   total no. of   reducible points:  50; test:  1.00000000
  0.000513067179734  1.000000000000000  0.000000000000000  0.000000000000000
  0.016604069565742  0.707106781186547  0.707106781186547  0.000000000000000
 -0.029586038961039  0.577350269189626  0.577350269189626  0.577350269189626
  0.026576207082159  0.480384461415261  0.480384461415261  0.733799385705343
  0.016522170993716  0.320772648980776  0.000000000000000  0.947156221362588
   total no. of   reducible points:  74; test:  1.00000000
  0.011544011544012  1.000000000000000  0.000000000000000  0.000000000000000
  0.011943909085856  0.577350269189626  0.577350269189626  0.577350269189626
  0.011110555710603  0.369602846454150  0.369602846454150  0.852518311701268
  0.011876501294537  0.694354006602666  0.694354006602666  0.189063552885395
  0.011812303746904  0.374243039090341  0.000000000000000  0.927330657151172
   total no. of   reducible points:  86; test:  1.00000000
  0.003828270494937  1.000000000000000  0.000000000000000  0.000000000000000
  0.009793737512488  0.577350269189626  0.577350269189626  0.577350269189626
  0.008211737283191  0.185115635344736  0.185115635344736  0.965124035086594
  0.009942814891178  0.690421048382292  0.690421048382292  0.215957291845848
  0.009595471336071  0.395689473055942  0.395689473055942  0.828769981252592
  0.009694996361663  0.478369028812150  0.000000000000000  0.878158910604066
   total no. of   reducible points: 110; test:  1.00000000
  0.000599631368862  1.000000000000000  0.000000000000000  0.000000000000000
  0.007372999718621  0.707106781186547  0.707106781186547  0.000000000000000
  0.007210515360144  0.577350269189626  0.577350269189626  0.577350269189626
  0.007116355493118  0.676441040011426  0.676441040011426  0.291298882209527
  0.006753829486314  0.417496122796545  0.417496122796545  0.807089818359583
  0.007574394159054  0.157467667203908  0.157467667203908  0.974888643677173
  0.006991087353303  0.140355381171318  0.449332832326956  0.882270011260323
   total no. of   reducible points: 146; test:  1.00000000
  0.005544842902037  1.000000000000000  0.000000000000000  0.000000000000000
  0.006071332770671  0.707106781186547  0.707106781186547  0.000000000000000
  0.006383674773515  0.577350269189626  0.577350269189626  0.577350269189626
  0.005183387587748  0.255125262111413  0.255125262111413  0.932642590312691
  0.006317929009814  0.674360146036277  0.674360146036277  0.300793595137701
  0.006201670006589  0.431891069671941  0.431891069671941  0.791795559393492
  0.005477143385137  0.261393136033599  0.000000000000000  0.965232421976448
  0.005968383987681  0.499045316179604  0.144663074432512  0.854415804684659
   total no. of   reducible points: 170; test:  1.00000000
  0.001782340447245  1.000000000000000  0.000000000000000  0.000000000000000
  0.005716905949977  0.707106781186547  0.707106781186547  0.000000000000000
  0.005573383178849  0.577350269189626  0.577350269189626  0.577350269189626
  0.005608704082588  0.671297344269523  0.671297344269523  0.314196994182586
  0.005158237711805  0.289246562757544  0.289246562757544  0.912509096867474
  0.005518771467274  0.444693317871744  0.444693317871744  0.777493219314767
  0.004106777028169  0.129933544765007  0.129933544765007  0.982972302707253
  0.005051846064615  0.345770219761128  0.000000000000000  0.938319218137592
  0.005530248916233  0.159041710538353  0.836036015482459  0.525118572443642
   total no. of   reducible points: 194; test:  1.00000000
 -0.055226399197273  1.000000000000000  0.000000000000000  0.000000000000000
  0.004450274607445  0.577350269189626  0.577350269189626  0.577350269189626
  0.004496841067921  0.449204468739761  0.449204468739761  0.772289253148364
  0.005049153450479  0.252041949021020  0.252041949021020  0.934317778845812
  0.003976408018052  0.698190665844724  0.698190665844724  0.158302205463478
  0.004401400650381  0.658740524346096  0.658740524346096  0.363485684956727
  0.017245443505444  0.040385440500977  0.040385440500977  0.998367683967727
  0.004231083095357  0.582384230971558  0.000000000000000  0.812913653173365
  0.005198069864064  0.354587739051869  0.000000000000000  0.935022745880593
  0.004695720972569  0.227218180899819  0.486466153588665  0.843636521068894
   total no. of   reducible points: 230; test:  1.00000000
 -0.001313769127327  1.000000000000000  0.000000000000000  0.000000000000000
 -0.002522728704859  0.707106781186547  0.707106781186547  0.000000000000000
  0.004186853881701  0.577350269189626  0.577350269189626  0.577350269189626
  0.005315167977811  0.703937339158548  0.703937339158548  0.094575076403713
  0.004047142377086  0.101252624857241  0.101252624857241  0.989694807462905
  0.004112482394407  0.464744872642054  0.464744872642054  0.753673939250816
  0.003595584899759  0.327742065497163  0.327742065497163  0.886098344997499
  0.004256131351428  0.662033866369997  0.662033866369997  0.351315128564633
  0.004229582700647  0.850650808352040  0.000000000000000  0.525731112119134
  0.004080914225781  0.323348454269290  0.115311201100970  0.939227929749916
  0.004071467593831  0.231479015871260  0.524493924092236  0.819343388819120
   total no. of   reducible points: 266; test:  1.00000000
  0.000854591172513  1.000000000000000  0.000000000000000  0.000000000000000
  0.003599119285026  0.577350269189626  0.577350269189626  0.577350269189626
  0.003449788424306  0.351564034557011  0.351564034557011  0.867643624544083
  0.003604822601420  0.656632941021961  0.656632941021961  0.371034178384821
  0.003576729661743  0.472905413258100  0.472905413258100  0.743452042987556
  0.002352101413689  0.096183085226148  0.096183085226148  0.990705621379408
  0.003108953122414  0.221964523629418  0.221964523629418  0.949454317226443
  0.003650045807677  0.701176641608955  0.701176641608955  0.129238672710514
  0.002982344963172  0.264415288706066  0.000000000000000  0.964408914879206
  0.003600820932216  0.571895589187896  0.000000000000000  0.820326419827759
  0.003571540554273  0.251003475177047  0.800072749407395  0.544867737258077
  0.003392312205006  0.123354853258333  0.412772408316853  0.902442529533000
   total no. of   reducible points: 302; test:  1.00000000
  0.003006796749454  1.000000000000000  0.000000000000000  0.000000000000000
  0.003050627745651  0.577350269189626  0.577350269189626  0.577350269189626
  0.001621104600289  0.706896546391232  0.706896546391232  0.024383301669356
  0.003005701484902  0.479468262571203  0.479468262571203  0.734996850587746
  0.002990992529654  0.192753315487802  0.192753315487802  0.962129055136014
  0.002982170644108  0.693035796132712  0.693035796132712  0.198501311223365
  0.002721564237311  0.360830211552009  0.360830211552009  0.860001812127547
  0.003033513795811  0.649848616149617  0.649848616149617  0.394199888605839
  0.003007949555219  0.193294501323034  0.000000000000000  0.981140782843257
  0.002881964603055  0.380049491989930  0.000000000000000  0.924966152698679
  0.002958357626536  0.289955882549957  0.793453785658232  0.535123047718276
  0.003036020026407  0.096841214551040  0.828080150668686  0.552182074349399
  0.002832187403926  0.183343464704166  0.907465826530513  0.378009189874487
   total no. of   reducible points: 350; test:  1.00000000
  0.000526589796822  1.000000000000000  0.000000000000000  0.000000000000000
  0.002548219972003  0.707106781186547  0.707106781186547  0.000000000000000
  0.002512317418927  0.577350269189626  0.577350269189626  0.577350269189626
  0.002530403801186  0.690934630750911  0.690934630750911  0.212646824707552
  0.002014279020919  0.177483605460916  0.177483605460916  0.967987158791473
  0.002501725168403  0.491434263778475  0.491434263778475  0.719016501040843
  0.002513267174598  0.645666470742426  0.645666470742426  0.407712664897770
  0.002302694782227  0.286128901030764  0.286128901030764  0.914472801120872
  0.001462495621595  0.075680843671780  0.075680843671780  0.994255912631278
  0.002445373437313  0.392725976336800  0.392725976336800  0.831584400419232
  0.002417442375639  0.881813287779429  0.000000000000000  0.471598691151316
  0.001910951282180  0.977642811118265  0.000000000000000  0.210272522857307
  0.002416930044325  0.205482369640304  0.868946032287241  0.450233038258263
  0.002512236854563  0.590515704892527  0.799927854385729  0.106801826075805
  0.002496644054553  0.555015236107681  0.771746262691590  0.310428403516654
  0.002236607760438  0.937180985855372  0.334436314534346  0.099217696364292
   total no. of   reducible points: 434; test:  1.00000000
  0.000309512129531  1.000000000000000  0.000000000000000  0.000000000000000
  0.001852379698597  0.577350269189626  0.577350269189626  0.577350269189626
  0.001871790639278  0.704095493822747  0.704095493822747  0.092190407076898
  0.001858812585438  0.680774406645524  0.680774406645524  0.270356088359165
  0.001852028828296  0.637254693925875  0.637254693925875  0.433373868777154
  0.001846715956151  0.504441970780036  0.504441970780036  0.700768575373573
  0.001818471778163  0.421576178401097  0.421576178401097  0.802836877335274
  0.001749564657281  0.331792073647212  0.331792073647212  0.883078727934133
  0.001617210647254  0.238473670142189  0.238473670142189  0.941414158220403
  0.001384737234852  0.145903644915776  0.145903644915776  0.978480583762694
  0.000976433116505  0.060950341155072  0.060950341155072  0.996278129754016
  0.001857161196774  0.611684344200988  0.000000000000000  0.791101929626902
  0.001705153996396  0.396475534819986  0.000000000000000  0.918045287711454
  0.001300321685886  0.172478200990772  0.000000000000000  0.985013335028002
  0.001842866472905  0.561026380862206  0.351828092773352  0.749310611904116
  0.001802658934377  0.474239284255198  0.263471665593795  0.840047488359050
  0.001849830560444  0.598412649788538  0.181664084036021  0.780320742479920
  0.001713904507107  0.379103540769556  0.172079522565688  0.909213475092374
  0.001555213603397  0.277867319058624  0.082130215819325  0.957102074310073
  0.001802239128009  0.503356427107512  0.089992058420749  0.859379855890721
   total no. of   reducible points: 590; test:  1.00000000
  qrot: 

              1        2        3      
    1    1.0000   0.0000   0.0000
    2    0.0000   1.0000   0.0000
    3    0.0000   0.0000   1.0000
  me                     0   done genpts
  me                     2   done genpts
  me                     3   done genpts
  me                     4   done genpts
  me                     5   done genpts
  me                     6   done genpts
  me                     7   done genpts
  me                     1   done genpts
  me                     0   done uprt
  me                     1   done uprt
  me                     2   done uprt
  me                     3   done uprt
  me                     4   done uprt
  me                     5   done uprt
  me                     6   done uprt
  me                     7   done uprt
  me                     0  done mem
  me                     1  done mem
  me                     2  done mem
  me                     3  done mem
  me                     4  done mem
  me                     5  done mem
  me                     6  done mem
  me                     7  done mem
  dftinpanae: itol2e                     8  iaoacc                    14  tol_rho    1.0000000000000000E-010

            General Information
            -------------------
          SCF calculation type: DFT
          Wavefunction type:  spin polarized.
          No. of atoms     :     1
          No. of electrons :     8
           Alpha electrons :     5
            Beta electrons :     3
          Charge           :     0
          Spin multiplicity:     3
          Use of symmetry is: off; symmetry adaption is: off
          Maximum number of iterations:  50
          AO basis - number of functions:    55
                     number of shells:    14
          Convergence on energy requested:  1.00D-06
          Convergence on density requested:  1.00D-05
          Convergence on gradient requested:  5.00D-04

              XC Information
              --------------
                     Hartree-Fock (Exact) Exchange  1.000          
                     LC-wPBE(h)Exchange Functional  1.000          
            Perdew 1991 LDA Correlation Functional  1.000 local    
           PerdewBurkeErnz. Correlation Functional  1.000 non-local

           Range-Separation Parameters        
           ---------------------------
           Alpha           :  0.00
           Beta            :  1.00
           Gamma           :  0.43
           Short-Range HF  :     F

             Grid Information
             ----------------
          Grid used for XC integration:  fine      
          Radial quadrature: Mura-Knowles        
          Angular quadrature: Lebedev. 
          Tag              B.-S. Rad. Rad. Pts. Rad. Cut. Ang. Pts.
          ---              ---------- --------- --------- ---------
          O                   0.60       70           7.0       590
          Grid pruning is: on 
          Number of quadrature shells:    70
          Spatial weights used:  Erf1

          Convergence Information
          -----------------------
          Convergence aids based upon iterative change in 
          total energy or number of iterations. 
          Levelshifting, if invoked, occurs when the 
          HOMO/LUMO gap drops below (HL_TOL):  1.00D-02
          DIIS, if invoked, will attempt to extrapolate 
          using up to (NFOCK): 10 stored Fock matrices.

                    Damping( 0%)  Levelshifting(0.5)       DIIS
                  --------------- ------------------- ---------------
          dE  on:    start            ASAP                start   
          dE off:    2 iters         50 iters            50 iters 


      Screening Tolerance Information
      -------------------------------
          Density screening/tol_rho:  1.00D-10
          AO Gaussian exp screening on grid/accAOfunc:  14
          CD Gaussian exp screening on grid/accCDfunc:  20
          XC Gaussian exp screening on grid/accXCfunc:  20
          Schwarz screening/accCoul:  1.00D-08



                         Geometry "geometry" -> "geometry"
                         ---------------------------------

 Output coordinates in angstroms (scale by  1.889725989 to convert to a.u.)

  No.       Tag          Charge          X              Y              Z
 ---- ---------------- ---------- -------------- -------------- --------------
    1 O                    8.0000     0.00000000     0.00000000     0.00000000

      Atomic Mass 
      ----------- 

      O                 15.994910


 Effective nuclear repulsion energy (a.u.)       0.0000000000

            Nuclear Dipole moment (a.u.) 
            ----------------------------
        X                 Y               Z
 ---------------- ---------------- ----------------
     0.0000000000     0.0000000000     0.0000000000

  
  CAM type calculations without CDFIT are
  only available with the direct option.
  Forcing Direct SCF
  


     <<<<<<    Before call to DFT_SCF.    >>>>>>
     <<<<<< date:  May  8  time: 11:54:13 >>>>>>


 Setting tolerance for linear dependence to 1.00D-05





 Setting tolerance for linear dependence to 1.00D-05

 Setting tolerance for linear dependence to 1.00D-05

 Setting tolerance for linear dependence to 1.00D-05
 Setting tolerance for linear dependence to 1.00D-05
 Setting tolerance for linear dependence to 1.00D-05
 Setting tolerance for linear dependence to 1.00D-05
 Setting tolerance for linear dependence to 1.00D-05
  lindep tolerance =    1.0000000000000001E-005
  lindep tolerance =    1.0000000000000001E-005
  lindep tolerance =    1.0000000000000001E-005
  lindep tolerance =    1.0000000000000001E-005
  lindep tolerance =    1.0000000000000001E-005
  lindep tolerance =    1.0000000000000001E-005
  lindep tolerance =    1.0000000000000001E-005
  lindep tolerance =    1.0000000000000001E-005


     <<<<<<    Before 3c-2e initialize.   >>>>>>
     <<<<<< date:  May  8  time: 11:54:13 >>>>>>


 Setting fock-build task_bf   :      -1
                    maxquartet:   10000
                    maxeri    :  129600
                    maxscr    :       0
                    intacc    : 0.0D+00
                    denscreen : T
                    dentol    : 1.0D-06


      Superposition of Atomic Density Guess
      -------------------------------------

 Sum of atomic energies:         -74.78126245

      Non-variational initial energy
      ------------------------------

 Total energy =     -74.280003
 1-e energy   =    -103.213045
 2-e energy   =      28.933043
 HOMO         =      -0.376641
 LUMO         =      -0.376641


 Setting fock-build task_bf   :      -1
                    maxquartet:   10000
                    maxeri    :  129600
                    maxscr    :       0
                    intacc    : 0.0D+00
                    denscreen : T
                    dentol    : 1.0D-06


 Wrote molecular orbitals to ./o.movecs

  WARNING: movecs_in_org=atomic not equal to movecs_in=./o.movecs
   Time after variat. SCF:      0.3

 Setting fock-build task_bf   :      -1
                    maxquartet:   10000
                    maxeri    :  129600
                    maxscr    :       0
                    intacc    : 0.0D+00
                    denscreen : T
                    dentol    : 1.0D-06

   Time prior to 1st pass:      0.3


     <<<<<<      Before SCF iter loop.    >>>>>>
     <<<<<< date:  May  8  time: 11:54:13 >>>>>>

           DAMPING=T LEVELSHIFTING=F DIISING=T
          itol2e= 8 iAOacc=12 iXCacc=20


     <<<<<<            calling 1-e int    >>>>>>
     <<<<<< date:  May  8  time: 11:54:13 >>>>>>

    Kinetic Matrix Time:          0.0s

           Kinetic energy =     73.858561327637

    Potential Matrix Time:          0.0s


     <<<<<<    Before call to GETVXC.     >>>>>>
     <<<<<< date:  May  8  time: 11:54:13 >>>>>>



     <<<<<<    Before call to fock_2e.    >>>>>>
     <<<<<< date:  May  8  time: 11:54:13 >>>>>>



     <<<<<<     After call to fock_2e.    >>>>>>
     <<<<<< date:  May  8  time: 11:54:13 >>>>>>

    Fock_2e Build Time:          0.1s
  *** grid_quadv0:                    calc_type:                    1
  *** grid_quadv0:                    grid_written: F
  *** grid_quadv0:                    grad: T
  *** grid_quadv0:                    kske: F
  *** grid_quadv0:                    kslap: F
  *** grid_quadv0:                    do_scf: T
  *** grid_quadv0:                    fde_option:                    0
  *** grid_quadv0:                    n_per_rec:                 3070
  *** grid_quadv0:                    calc_type:                    1
  *** grid_quadv0:                    grid_written: F
  *** grid_quadv0:                    grad: T
  *** grid_quadv0:                    kske: F
  *** grid_quadv0:                    kslap: F
  *** grid_quadv0:                    do_scf: T
  *** grid_quadv0:                    fde_option:                    0
  *** grid_quadv0:                    n_per_rec:                 3070
  *** grid_quadv0:                    calc_type:                    1
  *** grid_quadv0:                    grid_written: F
  *** grid_quadv0:                    grad: T
  *** grid_quadv0:                    calc_type:                    1
  *** grid_quadv0:                    grid_written: F
  *** grid_quadv0:                    grad: T
  *** grid_quadv0:                    kske: F
  *** grid_quadv0:                    kslap: F
  *** grid_quadv0:                    do_scf: T
  *** grid_quadv0:                    fde_option:                    0
  *** grid_quadv0:                    n_per_rec:                 3070
  *** grid_quadv0:                    calc_type:                    1
  *** grid_quadv0:                    grid_written: F
  *** grid_quadv0:                    grad: T
  *** grid_quadv0:                    kske: F
  *** grid_quadv0:                    kslap: F
  *** grid_quadv0:                    do_scf: T
  *** grid_quadv0:                    fde_option:                    0
  *** grid_quadv0:                    n_per_rec:                 3070
  *** grid_quadv0:                    calc_type:                    1
  *** grid_quadv0:                    grid_written: F
  *** grid_quadv0:                    grad: T
  *** grid_quadv0:                    kske: F
  *** grid_quadv0:                    kslap: F
  *** grid_quadv0:                    do_scf: T
  *** grid_quadv0:                    fde_option:                    0
  *** grid_quadv0:                    n_per_rec:                 3070
  *** grid_quadv0:                    calc_type:                    1
  *** grid_quadv0:                    grid_written: F
  *** grid_quadv0:                    grad: T
  *** grid_quadv0:                    kske: F
  *** grid_quadv0:                    kslap: F
  *** grid_quadv0:                    do_scf: T
  *** grid_quadv0:                    fde_option:                    0
  *** grid_quadv0:                    n_per_rec:                 3070
  *** grid_quadv0:                    calc_type:                    1
  *** grid_quadv0:                    grid_written: F
  *** grid_quadv0:                    grad: T
  *** grid_quadv0:                    kske: F
  *** grid_quadv0:                    kslap: F
  *** grid_quadv0:                    do_scf: T
  *** grid_quadv0:                    fde_option:                    0
  *** grid_quadv0:                    n_per_rec:                 3070
  *** grid_quadv0:                    kske: F
  *** grid_quadv0:                    kslap: F
  *** grid_quadv0:                    do_scf: T
  *** grid_quadv0:                    fde_option:                    0
  *** grid_quadv0:                    n_per_rec:                 3070
   0: nuse=   8 avail= 12500000Mb on .
   1: nuse=   8 avail= 12500000Mb on .
   2: nuse=   8 avail= 12500000Mb on .
   3: nuse=   8 avail= 12500000Mb on .
   4: nuse=   8 avail= 12500000Mb on .
   6: nuse=   8 avail= 12500000Mb on .
   5: nuse=   8 avail= 12500000Mb on .
   7: nuse=   8 avail= 12500000Mb on .
 l_cube input   11.00

  atom type   l_cube   no. cubes   segmts   rad   sub
 ----------- -------- ----------- -------- ----- -----
        1      9.33        34         3      14     8

 Grid_pts file          = ./o.gridpts.0
 Record size in doubles =  12289        No. of grid_pts per rec  =   3070
 Max. records in memory =      3        Max. recs in file   = 126656358

 me   0 NQTOTC NQ/cube    4192     232
 me   1 NQTOTC NQ/cube    2609     869
 me   2 NQTOTC NQ/cube    2332    1166
 me   3 NQTOTC NQ/cube    2633    1316
 me   4 NQTOTC NQ/cube    1908     636
 me   5 NQTOTC NQ/cube    2264    1132
 me   6 NQTOTC NQ/cube    2048    1024
 me   7 NQTOTC NQ/cube    2002    1001

 XC quadr. integrated density :       8.000000 npts:    19888 nctrs:        1

    Fock_xc Build Time:          0.0s


     <<<<<<    Before call to GETVCOUL.   >>>>>>
     <<<<<< date:  May  8  time: 11:54:13 >>>>>>



     <<<<<<    End of parallel region.    >>>>>>
     <<<<<< date:  May  8  time: 11:54:13 >>>>>>

    Total Fock Matrix Build Time:          0.1s
 Etnew, Ecore, Ecoul, Exc(1), Exc(2), Totsic:   -75.012261822573947       -102.33273325585129        35.595226958185336       -8.2747555249079809        0.0000000000000000        0.0000000000000000     
  delta =   -75.012261822573947     
  delta =   -75.012261822573947     


         Total DFT energy =      -75.012261822574
      One electron energy =     -102.332733255851
           Coulomb energy =       35.595226958185
  delta =   -75.012261822573947     
  delta =   -75.012261822573947     
  delta =   -75.012261822573947     
  delta =   -75.012261822573947     
  delta =   -75.012261822573947     
  delta =   -75.012261822573947     
    Exchange-Corr. energy =       -8.274755524908
 Nuclear repulsion energy =        0.000000000000

 Numeric. integr. density =        7.999999993526

     Total iterative time =      1.4s




     <<<<<<        calling diis driver    >>>>>>
     <<<<<< date:  May  8  time: 11:54:13 >>>>>>

 nhist                     1  pulay matrix 
   0.0000E+00
  -1.0000E+00   2.0397E-01


     <<<<<<         called diis driver    >>>>>>
     <<<<<< date:  May  8  time: 11:54:13 >>>>>>


 global array: fock transf[1:55,1:55],  handle: -940 

            1           2           3           4           5           6  
       ----------- ----------- ----------- ----------- ----------- -----------
   1       6.82990     0.00000    -0.00000     0.00000    -4.76010    -0.00000
   2       0.00000    12.30273     0.00842     0.02053     0.00000    -0.89691
   3      -0.00000     0.00842    12.28221     0.00735    -0.00000    -0.65679
   4       0.00000     0.02053     0.00735    12.29712     0.00000    -1.32484
   5      -4.76010     0.00000    -0.00000     0.00000     9.16235     0.00000
   6      -0.00000    -0.89691    -0.65679    -1.32484     0.00000     2.56726
   7       0.00000     1.47336    -0.37264    -0.80620     0.00000    -0.00313
   8      -0.00000    -0.02120     1.54597    -0.75301     0.00000     0.00006
   9       0.00000     0.00020    -0.00071    -0.00015    -0.00000     0.00106
  10      -1.64801    -0.00000     0.00000     0.00000     2.50782    -0.00000
  11      -0.00000    -0.00054    -0.00287     0.00082     0.00000     0.00239
  12      -0.00000    -0.00004     0.00100     0.00005    -0.00000    -0.00118
  13      -0.00000    -0.00162     0.00087     0.00261    -0.00000    -0.00510
  14      -0.91422    -0.00000     0.00000     0.00000     0.21910    -0.00000
  15       0.00000     0.24439     0.05731     0.12093     0.00000     0.69109
  16      -0.00000     0.00265     0.24324    -0.12469    -0.00000    -0.00082
  17      -0.00000     0.13020    -0.11049    -0.21334    -0.00000    -0.40810
  18      -0.00058    -0.00000    -0.00000     0.00000     0.00202    -0.00000
  19      -0.00006     0.00000     0.00000    -0.00000     0.00021     0.00000
  20      -0.00042     0.00000     0.00000    -0.00000     0.00145    -0.00000
  21       0.00000    -0.00010     0.00035     0.00008     0.00000    -0.00020
  22       0.00084     0.00000    -0.00000    -0.00000    -0.00293    -0.00000
  23       0.00334    -0.00000    -0.00000    -0.00000    -0.01167    -0.00000
  24      -0.00000    -0.00030     0.00145     0.00019    -0.00000    -0.00074
  25      -0.00000    -0.00081    -0.00044     0.00122     0.00000    -0.00051
  26      -0.00000    -0.00029     0.00032     0.00036    -0.00000    -0.00036
  27      -0.00019    -0.00000     0.00000     0.00000     0.00031     0.00000
  28       0.00041     0.00000     0.00000    -0.00000    -0.00065     0.00000
  29      -0.00010     0.00000     0.00000    -0.00000     0.00016     0.00000
  30      -0.00000     0.08001     0.00797     0.03674     0.00000    -0.67956
  31      -0.00000    -0.00714    -0.07819     0.03076    -0.00000     0.09395
  32       0.00000     0.03270    -0.03149    -0.07173     0.00000     0.48018
  33      -0.00000     0.31508    -0.36256    -0.39505     0.00000     0.54464
  34       0.00000    -0.41305    -0.46113     0.08999     0.00000     0.62309
  35      -0.00000    -0.35329     0.20783    -0.47783    -0.00000     0.91515
  36       0.26836     0.00000    -0.00000    -0.00000    -1.04443     0.00000
  37       0.00123     0.00000    -0.00000    -0.00000    -0.00196    -0.00000
  38       0.00185    -0.00000    -0.00000    -0.00000    -0.00297    -0.00000
  39       0.00002    -0.00000     0.00000     0.00000     0.00006     0.00000
  40       0.00005    -0.00000    -0.00000     0.00000     0.00016     0.00000
  41       0.00004     0.00000     0.00000    -0.00000     0.00014     0.00000
  42      -0.00000    -0.02707    -0.08559    -0.00436     0.00000     0.08655
  43      -0.00000     0.06232    -0.01619     0.06896     0.00000    -0.13555
  44       0.00000    -0.06257     0.01648     0.05979    -0.00000    -0.03700
  45       0.00001    -0.00000    -0.00000    -0.00000     0.00003     0.00000
  46      -0.00032     0.00000     0.00000     0.00000    -0.00106     0.00000
  47       0.05520    -0.00000    -0.00000     0.00000     0.54834     0.00000
  48       0.00000     0.20684     0.02683     0.15453     0.00000    -0.25571
  49      -0.00000    -0.13253     0.17359     0.14597    -0.00000    -0.11912
  50       0.00000    -0.08800    -0.19518     0.15229    -0.00000     0.00381
  51      -0.37922    -0.00000     0.00000     0.00000     0.80441     0.00000
  52       0.00000    -0.09807     0.03203    -0.09965     0.00000     0.06399
  53       0.00000    -0.08975     0.04935     0.10412    -0.00000    -0.02933
  54       0.00000     0.05579     0.13360    -0.01526     0.00000    -0.03816
  55       0.17811     0.00000     0.00000    -0.00000    -0.31584    -0.00000

            7           8           9          10          11          12  
       ----------- ----------- ----------- ----------- ----------- -----------
   1       0.00000    -0.00000     0.00000    -1.64801    -0.00000    -0.00000
   2       1.47336    -0.02120     0.00020    -0.00000    -0.00054    -0.00004
   3      -0.37264     1.54597    -0.00071     0.00000    -0.00287     0.00100
   4      -0.80620    -0.75301    -0.00015     0.00000     0.00082     0.00005
   5       0.00000     0.00000    -0.00000     2.50782     0.00000    -0.00000
   6      -0.00313     0.00006     0.00106    -0.00000     0.00239    -0.00118
   7       2.55330     0.00011     0.00152     0.00000    -0.00039    -0.00060
   8       0.00011     2.55270    -0.00216     0.00000    -0.01099     0.00377
   9       0.00152    -0.00216     4.72241    -0.00000     0.00003    -0.00001
  10       0.00000     0.00000    -0.00000     9.99108    -0.00000     0.00000
  11      -0.00039    -0.01099     0.00003    -0.00000     4.72470     0.00186
  12      -0.00060     0.00377    -0.00001     0.00000     0.00186     4.72001
  13      -0.01079    -0.00116    -0.00002    -0.00000     0.00151     0.00397
  14      -0.00000     0.00000    -0.00000     5.83590     0.00000     0.00000
  15      -0.40421     0.00824     0.00024     0.00000     0.00157    -0.00108
  16      -0.02554    -0.81040     0.00418    -0.00000     0.02115    -0.00970
  17      -0.70057     0.02303    -0.00378     0.00000    -0.00320    -0.00008
  18       0.00000     0.00000     0.00000     0.00086    -0.00000    -0.00000
  19      -0.00000    -0.00000    -0.00000     0.00009     0.00000    -0.00000
  20      -0.00000    -0.00000    -0.00000     0.00062    -0.00000    -0.00000
  21      -0.00031     0.00043    -1.87224     0.00000     0.00006    -0.00002
  22      -0.00000    -0.00000    -0.00000    -0.00125    -0.00000     0.00000
  23       0.00000     0.00000     0.00000    -0.00495    -0.00000    -0.00000
  24      -0.00103     0.00188     0.00008     0.00000    -1.28235     1.06531
  25      -0.00178    -0.00139     0.00000     0.00000     1.09144     0.10205
  26      -0.00080     0.00017     0.00002    -0.00000    -0.81998    -1.53480
  27      -0.00000    -0.00000    -0.00000     0.00057    -0.00000    -0.00000
  28      -0.00000    -0.00000     0.00000    -0.00121    -0.00000    -0.00000
  29      -0.00000    -0.00000     0.00000     0.00030    -0.00000     0.00000
  30       0.47906    -0.09634     0.00026     0.00000    -0.00014     0.00012
  31      -0.03440    -0.82672     0.00210    -0.00000     0.01042    -0.00430
  32       0.68060     0.02597     0.00170     0.00000     0.00089    -0.00022
  33       1.05030    -0.30859     0.00020    -0.00000    -0.00030    -0.00156
  34      -0.57919    -0.88336     0.00012    -0.00000     0.00251     0.00107
  35      -0.23877     0.78628    -0.00007    -0.00000     0.00056    -0.00139
  36       0.00000     0.00000     0.00000    -0.80605    -0.00000    -0.00000
  37       0.00000    -0.00000    -0.00000    -0.00365    -0.00000     0.00000
  38       0.00000     0.00000     0.00000    -0.00551     0.00000    -0.00000
  39      -0.00000    -0.00000    -0.00000    -0.00025    -0.00000    -0.00000
  40      -0.00000     0.00000     0.00000    -0.00065     0.00000     0.00000
  41      -0.00000    -0.00000     0.00000    -0.00054    -0.00000     0.00000
  42      -0.00303    -0.13975    -0.00129    -0.00000    -0.00583     0.00206
  43       0.04271    -0.08461    -0.00035     0.00000    -0.00190     0.00056
  44      -0.15913    -0.01976     0.00079     0.00000    -0.00068    -0.00028
  45      -0.00000    -0.00000     0.00000    -0.00011     0.00000    -0.00000
  46      -0.00000     0.00000    -0.00000     0.00426     0.00000     0.00000
  47       0.00000    -0.00000    -0.00000    -1.34500     0.00000     0.00000
  48       0.10547    -0.04868    -0.00000     0.00000    -0.00206     0.00086
  49      -0.23554     0.10069    -0.00346    -0.00000    -0.00589     0.00430
  50      -0.11233    -0.25896     0.00193    -0.00000     0.01522    -0.00264
  51       0.00000     0.00000    -0.00000     0.22843     0.00000     0.00000
  52      -0.02415     0.04054    -0.00061    -0.00000    -0.00229     0.00031
  53      -0.07551    -0.00009    -0.00150    -0.00000     0.00014     0.00185
  54       0.01435     0.07001    -0.00174     0.00000    -0.00960     0.00242
  55      -0.00000     0.00000     0.00000    -0.28212     0.00000    -0.00000

           13          14          15          16          17          18  
       ----------- ----------- ----------- ----------- ----------- -----------
   1      -0.00000    -0.91422     0.00000    -0.00000    -0.00000    -0.00058
   2      -0.00162    -0.00000     0.24439     0.00265     0.13020    -0.00000
   3       0.00087     0.00000     0.05731     0.24324    -0.11049    -0.00000
   4       0.00261     0.00000     0.12093    -0.12469    -0.21334     0.00000
   5      -0.00000     0.21910     0.00000    -0.00000    -0.00000     0.00202
   6      -0.00510    -0.00000     0.69109    -0.00082    -0.40810    -0.00000
   7      -0.01079    -0.00000    -0.40421    -0.02554    -0.70057     0.00000
   8      -0.00116     0.00000     0.00824    -0.81040     0.02303     0.00000
   9      -0.00002    -0.00000     0.00024     0.00418    -0.00378     0.00000
  10      -0.00000     5.83590     0.00000    -0.00000     0.00000     0.00086
  11       0.00151     0.00000     0.00157     0.02115    -0.00320    -0.00000
  12       0.00397     0.00000    -0.00108    -0.00970    -0.00008    -0.00000
  13       4.72283    -0.00000     0.00455     0.00237     0.02297    -0.00000
  14      -0.00000     4.63423     0.00000     0.00000     0.00000    -0.00136
  15       0.00455     0.00000     4.41845    -0.00269    -0.00370     0.00000
  16       0.00237     0.00000    -0.00269     4.39638     0.00044    -0.00000
  17       0.02297     0.00000    -0.00370     0.00044     4.39673     0.00000
  18      -0.00000    -0.00136     0.00000    -0.00000     0.00000     3.79232
  19      -0.00000    -0.00014     0.00000     0.00000    -0.00000     0.01129
  20       0.00000    -0.00098     0.00000     0.00000    -0.00000     0.00599
  21      -0.00005     0.00000    -0.00012    -0.00222     0.00200    -0.00000
  22       0.00000     0.00198     0.00000    -0.00000    -0.00000     0.00052
  23      -0.00000     0.00786     0.00000    -0.00000    -0.00000    -0.00209
  24       0.85130    -0.00000    -0.00002    -0.00998     0.00672    -0.00000
  25       1.51900     0.00000     0.00237     0.00733     0.00895    -0.00000
  26       0.68734    -0.00000     0.00088    -0.00030     0.00517    -0.00000
  27       0.00000     0.00031    -0.00000    -0.00000     0.00000     0.14497
  28      -0.00000    -0.00065     0.00000    -0.00000     0.00000    -2.23519
  29       0.00000     0.00016     0.00000    -0.00000     0.00000    -0.65163
  30      -0.00251    -0.00000    -1.48306     0.14997    -0.13333    -0.00000
  31       0.00089    -0.00000     0.15779     1.48358    -0.07324    -0.00000
  32      -0.01103    -0.00000     0.12792    -0.08659    -1.48635     0.00000
  33      -0.00115    -0.00000     0.06406    -0.26800     1.16110     0.00000
  34      -0.00057     0.00000    -0.80549    -0.87549    -0.15849     0.00000
  35      -0.00195     0.00000    -0.91114     0.76687     0.22681    -0.00000
  36       0.00000     0.35927    -0.00000    -0.00000    -0.00000    -0.00510
  37       0.00000    -0.00196     0.00000    -0.00000    -0.00000    -0.00008
  38      -0.00000    -0.00296     0.00000     0.00000    -0.00000    -0.00116
  39      -0.00000    -0.00025    -0.00000    -0.00000     0.00000    -0.21321
  40      -0.00000    -0.00066     0.00000     0.00000    -0.00000    -0.09535
  41       0.00000    -0.00055     0.00000    -0.00000     0.00000    -0.41759
  42       0.00084    -0.00000    -0.04427    -0.09105     0.02864     0.00000
  43      -0.00117    -0.00000     0.08002    -0.05269    -0.01750     0.00000
  44      -0.00639     0.00000    -0.02945    -0.01624    -0.10097     0.00000
  45      -0.00000    -0.00011    -0.00000    -0.00000     0.00000     0.00008
  46       0.00000     0.00434    -0.00000     0.00000    -0.00000    -0.00021
  47       0.00000    -1.65731    -0.00000    -0.00000    -0.00000     0.00131
  48       0.00278    -0.00000     0.29867    -0.05135    -0.03697     0.00000
  49       0.01503    -0.00000    -0.01871     0.08737    -0.24953    -0.00000
  50       0.00753     0.00000    -0.05320    -0.24648    -0.08293     0.00000
  51       0.00000    -0.21996    -0.00000     0.00000    -0.00000     0.00341
  52      -0.00209    -0.00000    -0.12049     0.06169     0.01628    -0.00000
  53       0.00999    -0.00000    -0.02066    -0.00344    -0.11389    -0.00000
  54      -0.00018     0.00000     0.06392     0.09875    -0.01272    -0.00000
  55      -0.00000    -0.06206    -0.00000     0.00000     0.00000    -0.00012

           19          20          21          22          23          24  
       ----------- ----------- ----------- ----------- ----------- -----------
   1      -0.00006    -0.00042     0.00000     0.00084     0.00334    -0.00000
   2       0.00000     0.00000    -0.00010     0.00000    -0.00000    -0.00030
   3       0.00000     0.00000     0.00035    -0.00000    -0.00000     0.00145
   4      -0.00000    -0.00000     0.00008    -0.00000    -0.00000     0.00019
   5       0.00021     0.00145     0.00000    -0.00293    -0.01167    -0.00000
   6       0.00000    -0.00000    -0.00020    -0.00000    -0.00000    -0.00074
   7      -0.00000    -0.00000    -0.00031    -0.00000     0.00000    -0.00103
   8      -0.00000    -0.00000     0.00043    -0.00000     0.00000     0.00188
   9      -0.00000    -0.00000    -1.87224    -0.00000     0.00000     0.00008
  10       0.00009     0.00062     0.00000    -0.00125    -0.00495     0.00000
  11       0.00000    -0.00000     0.00006    -0.00000    -0.00000    -1.28235
  12      -0.00000    -0.00000    -0.00002     0.00000    -0.00000     1.06531
  13      -0.00000     0.00000    -0.00005     0.00000    -0.00000     0.85130
  14      -0.00014    -0.00098     0.00000     0.00198     0.00786    -0.00000
  15       0.00000     0.00000    -0.00012     0.00000     0.00000    -0.00002
  16       0.00000     0.00000    -0.00222    -0.00000    -0.00000    -0.00998
  17      -0.00000    -0.00000     0.00200    -0.00000    -0.00000     0.00672
  18       0.01129     0.00599    -0.00000     0.00052    -0.00209    -0.00000
  19       3.77760    -0.01011    -0.00000     0.00202    -0.00037     0.00000
  20      -0.01011     3.79298    -0.00000    -0.00315    -0.00036    -0.00000
  21      -0.00000    -0.00000     3.12922     0.00000    -0.00000     0.00004
  22       0.00202    -0.00315     0.00000     3.76917     0.00978    -0.00000
  23      -0.00037    -0.00036    -0.00000     0.00978     3.80624    -0.00000
  24       0.00000    -0.00000     0.00004    -0.00000    -0.00000     3.12927
  25      -0.00000    -0.00000     0.00000    -0.00000    -0.00000     0.00142
  26      -0.00000    -0.00000     0.00001    -0.00000     0.00000     0.00132
  27       1.98434     1.19813    -0.00000     0.00008    -0.00032    -0.00000
  28       0.44367    -0.49490    -0.00000     0.00030     0.00107     0.00000
  29      -1.12622     1.93986    -0.00000    -0.00212     0.00028    -0.00000
  30       0.00000     0.00000    -0.00064    -0.00000     0.00000    -0.00342
  31       0.00000     0.00000    -0.00532     0.00000    -0.00000    -0.02348
  32      -0.00000    -0.00000    -0.00432     0.00000     0.00000    -0.01424
  33      -0.00000    -0.00000     0.00110     0.00000     0.00000     0.00368
  34      -0.00000    -0.00000     0.00065    -0.00000     0.00000     0.00243
  35       0.00000     0.00000    -0.00042     0.00000     0.00000    -0.00377
  36      -0.00052    -0.00367    -0.00000     0.00741     0.02948    -0.00000
  37       0.00102    -0.00173     0.00000     2.18994     0.78174    -0.00000
  38      -0.00057     0.00045    -0.00000    -0.76457     2.20585     0.00000
  39       0.43012     0.00593    -0.00000    -0.00012    -0.00007     0.00000
  40      -0.04272    -0.46680     0.00000    -0.00023    -0.00012     0.00000
  41      -0.20784     0.10463     0.00000     0.00014    -0.00019     0.00000
  42      -0.00000    -0.00000     0.00050    -0.00000     0.00000     0.00182
  43      -0.00000    -0.00000     0.00014    -0.00000    -0.00000     0.00198
  44      -0.00000    -0.00000    -0.00031    -0.00000    -0.00000    -0.00089
  45       0.00016    -0.00023    -0.00000    -0.46275     0.12921     0.00000
  46       0.00001    -0.00014     0.00000    -0.12844    -0.45921     0.00000
  47       0.00013     0.00094     0.00000    -0.00191    -0.00758    -0.00000
  48      -0.00000    -0.00000    -0.00001    -0.00000    -0.00000     0.00149
  49       0.00000     0.00000     0.00171    -0.00000    -0.00000     0.00659
  50      -0.00000    -0.00000    -0.00096     0.00000    -0.00000    -0.00421
  51       0.00035     0.00245    -0.00000    -0.00495    -0.01968     0.00000
  52       0.00000     0.00000     0.00131     0.00000     0.00000     0.00137
  53      -0.00000    -0.00000     0.00331     0.00000    -0.00000     0.01214
  54       0.00000     0.00000     0.00384     0.00000    -0.00000     0.01751
  55      -0.00001    -0.00008     0.00000     0.00017     0.00068    -0.00000

           25          26          27          28          29          30  
       ----------- ----------- ----------- ----------- ----------- -----------
   1      -0.00000    -0.00000    -0.00019     0.00041    -0.00010    -0.00000
   2      -0.00081    -0.00029    -0.00000     0.00000     0.00000     0.08001
   3      -0.00044     0.00032     0.00000     0.00000     0.00000     0.00797
   4       0.00122     0.00036     0.00000    -0.00000    -0.00000     0.03674
   5       0.00000    -0.00000     0.00031    -0.00065     0.00016     0.00000
   6      -0.00051    -0.00036     0.00000     0.00000     0.00000    -0.67956
   7      -0.00178    -0.00080    -0.00000    -0.00000    -0.00000     0.47906
   8      -0.00139     0.00017    -0.00000    -0.00000    -0.00000    -0.09634
   9       0.00000     0.00002    -0.00000     0.00000     0.00000     0.00026
  10       0.00000    -0.00000     0.00057    -0.00121     0.00030     0.00000
  11       1.09144    -0.81998    -0.00000    -0.00000    -0.00000    -0.00014
  12       0.10205    -1.53480    -0.00000    -0.00000     0.00000     0.00012
  13       1.51900     0.68734     0.00000    -0.00000     0.00000    -0.00251
  14       0.00000    -0.00000     0.00031    -0.00065     0.00016    -0.00000
  15       0.00237     0.00088    -0.00000     0.00000     0.00000    -1.48306
  16       0.00733    -0.00030    -0.00000    -0.00000    -0.00000     0.14997
  17       0.00895     0.00517     0.00000     0.00000     0.00000    -0.13333
  18      -0.00000    -0.00000     0.14497    -2.23519    -0.65163    -0.00000
  19      -0.00000    -0.00000     1.98434     0.44367    -1.12622     0.00000
  20      -0.00000    -0.00000     1.19813    -0.49490     1.93986     0.00000
  21       0.00000     0.00001    -0.00000    -0.00000    -0.00000    -0.00064
  22      -0.00000    -0.00000     0.00008     0.00030    -0.00212    -0.00000
  23      -0.00000     0.00000    -0.00032     0.00107     0.00028     0.00000
  24       0.00142     0.00132    -0.00000     0.00000    -0.00000    -0.00342
  25       3.13266    -0.00477    -0.00000     0.00000    -0.00000    -0.00554
  26      -0.00477     3.12609    -0.00000     0.00000    -0.00000    -0.00296
  27      -0.00000    -0.00000     3.54447    -0.01945    -0.00269     0.00000
  28       0.00000     0.00000    -0.01945     3.56769    -0.00169     0.00000
  29      -0.00000    -0.00000    -0.00269    -0.00169     3.57734     0.00000
  30      -0.00554    -0.00296     0.00000     0.00000     0.00000     3.06294
  31       0.01645    -0.00135    -0.00000     0.00000    -0.00000    -0.00117
  32      -0.02115    -0.01129    -0.00000    -0.00000    -0.00000    -0.00637
  33       0.00287     0.00318    -0.00000    -0.00000    -0.00000     0.02566
  34      -0.00343    -0.00184     0.00000    -0.00000     0.00000    -0.10442
  35       0.00151     0.00018     0.00000     0.00000     0.00000    -0.13608
  36      -0.00000    -0.00000    -0.00152     0.00320    -0.00079     0.00000
  37      -0.00000    -0.00000    -0.00009     0.00161    -0.00472     0.00000
  38       0.00000    -0.00000    -0.00085     0.00232     0.00238    -0.00000
  39       0.00000     0.00000     1.00834     0.81103    -0.41299     0.00000
  40       0.00000     0.00000    -0.80535     0.52794    -0.98010    -0.00000
  41       0.00000     0.00000    -0.43073     0.97248     0.87416     0.00000
  42      -0.00089    -0.00038     0.00000    -0.00000    -0.00000    -0.06138
  43      -0.00027     0.00009    -0.00000    -0.00000    -0.00000     0.15288
  44      -0.00175    -0.00202     0.00000     0.00000    -0.00000    -0.06083
  45       0.00000     0.00000    -0.00020     0.00000     0.00259     0.00000
  46       0.00000     0.00000     0.00032    -0.00129     0.00035    -0.00000
  47      -0.00000    -0.00000    -0.00047     0.00099    -0.00025    -0.00000
  48       0.00053     0.00058     0.00000    -0.00000     0.00000    -0.08977
  49       0.00446     0.00225     0.00000     0.00000     0.00000     0.01358
  50       0.00737    -0.00088    -0.00000    -0.00000    -0.00000     0.01010
  51       0.00000     0.00000     0.00367    -0.00774     0.00191    -0.00000
  52      -0.00674    -0.00017    -0.00000     0.00000     0.00000     0.05601
  53       0.01828     0.00458    -0.00000    -0.00000     0.00000     0.00776
  54      -0.01233     0.00484     0.00000     0.00000     0.00000    -0.02072
  55      -0.00000    -0.00000    -0.00238     0.00503    -0.00124     0.00000

           31          32          33          34          35          36  
       ----------- ----------- ----------- ----------- ----------- -----------
   1      -0.00000     0.00000    -0.00000     0.00000    -0.00000     0.26836
   2      -0.00714     0.03270     0.31508    -0.41305    -0.35329     0.00000
   3      -0.07819    -0.03149    -0.36256    -0.46113     0.20783    -0.00000
   4       0.03076    -0.07173    -0.39505     0.08999    -0.47783    -0.00000
   5      -0.00000     0.00000     0.00000     0.00000    -0.00000    -1.04443
   6       0.09395     0.48018     0.54464     0.62309     0.91515     0.00000
   7      -0.03440     0.68060     1.05030    -0.57919    -0.23877     0.00000
   8      -0.82672     0.02597    -0.30859    -0.88336     0.78628     0.00000
   9       0.00210     0.00170     0.00020     0.00012    -0.00007     0.00000
  10      -0.00000     0.00000    -0.00000    -0.00000    -0.00000    -0.80605
  11       0.01042     0.00089    -0.00030     0.00251     0.00056    -0.00000
  12      -0.00430    -0.00022    -0.00156     0.00107    -0.00139    -0.00000
  13       0.00089    -0.01103    -0.00115    -0.00057    -0.00195     0.00000
  14      -0.00000    -0.00000    -0.00000     0.00000     0.00000     0.35927
  15       0.15779     0.12792     0.06406    -0.80549    -0.91114    -0.00000
  16       1.48358    -0.08659    -0.26800    -0.87549     0.76687    -0.00000
  17      -0.07324    -1.48635     1.16110    -0.15849     0.22681    -0.00000
  18      -0.00000     0.00000     0.00000     0.00000    -0.00000    -0.00510
  19       0.00000    -0.00000    -0.00000    -0.00000     0.00000    -0.00052
  20       0.00000    -0.00000    -0.00000    -0.00000     0.00000    -0.00367
  21      -0.00532    -0.00432     0.00110     0.00065    -0.00042    -0.00000
  22       0.00000     0.00000     0.00000    -0.00000     0.00000     0.00741
  23      -0.00000     0.00000     0.00000     0.00000     0.00000     0.02948
  24      -0.02348    -0.01424     0.00368     0.00243    -0.00377    -0.00000
  25       0.01645    -0.02115     0.00287    -0.00343     0.00151    -0.00000
  26      -0.00135    -0.01129     0.00318    -0.00184     0.00018    -0.00000
  27      -0.00000    -0.00000    -0.00000     0.00000     0.00000    -0.00152
  28       0.00000    -0.00000    -0.00000    -0.00000     0.00000     0.00320
  29      -0.00000    -0.00000    -0.00000     0.00000     0.00000    -0.00079
  30      -0.00117    -0.00637     0.02566    -0.10442    -0.13608     0.00000
  31       3.04474     0.00042     0.04603     0.13789    -0.09304    -0.00000
  32       0.00042     3.04689     0.16488    -0.01891     0.05145     0.00000
  33       0.04603     0.16488     3.41882     0.00378     0.00555    -0.00000
  34       0.13789    -0.01891     0.00378     3.43599     0.02706     0.00000
  35      -0.09304     0.05145     0.00555     0.02706     3.45814    -0.00000
  36      -0.00000     0.00000    -0.00000     0.00000    -0.00000     0.84849
  37       0.00000    -0.00000    -0.00000     0.00000    -0.00000     0.00965
  38       0.00000    -0.00000    -0.00000    -0.00000    -0.00000     0.01458
  39       0.00000    -0.00000     0.00000     0.00000    -0.00000    -0.00022
  40       0.00000     0.00000    -0.00000    -0.00000    -0.00000    -0.00058
  41       0.00000    -0.00000     0.00000     0.00000    -0.00000    -0.00048
  42       0.15875     0.04728     0.63139     1.29801    -0.21387    -0.00000
  43       0.06943    -0.05058    -0.02360    -0.25171    -1.45365     0.00000
  44       0.02347    -0.16181    -1.31026     0.62507    -0.08393     0.00000
  45      -0.00000    -0.00000     0.00000     0.00000     0.00000    -0.00010
  46      -0.00000     0.00000    -0.00000    -0.00000    -0.00000     0.00378
  47      -0.00000    -0.00000    -0.00000     0.00000    -0.00000    -4.08302
  48      -0.00494     0.01995    -0.01558    -0.24802    -0.41807    -0.00000
  49       0.02705     0.06744    -0.46412    -0.03412     0.03840    -0.00000
  50      -0.06866     0.02566    -0.04913     0.40054    -0.23522    -0.00000
  51      -0.00000    -0.00000    -0.00000     0.00000    -0.00000    -2.12145
  52       0.00986    -0.01069    -0.02171     0.13302     0.64717     0.00000
  53      -0.00025     0.01499    -0.60929     0.16653    -0.05278    -0.00000
  54       0.01358     0.00340    -0.17310    -0.60630     0.09738     0.00000
  55       0.00000     0.00000     0.00000    -0.00000     0.00000     0.52624

           37          38          39          40          41          42  
       ----------- ----------- ----------- ----------- ----------- -----------
   1       0.00123     0.00185     0.00002     0.00005     0.00004    -0.00000
   2       0.00000    -0.00000    -0.00000    -0.00000     0.00000    -0.02707
   3      -0.00000    -0.00000     0.00000    -0.00000     0.00000    -0.08559
   4      -0.00000    -0.00000     0.00000     0.00000    -0.00000    -0.00436
   5      -0.00196    -0.00297     0.00006     0.00016     0.00014     0.00000
   6      -0.00000    -0.00000     0.00000     0.00000     0.00000     0.08655
   7       0.00000     0.00000    -0.00000    -0.00000    -0.00000    -0.00303
   8      -0.00000     0.00000    -0.00000     0.00000    -0.00000    -0.13975
   9      -0.00000     0.00000    -0.00000     0.00000     0.00000    -0.00129
  10      -0.00365    -0.00551    -0.00025    -0.00065    -0.00054    -0.00000
  11      -0.00000     0.00000    -0.00000     0.00000    -0.00000    -0.00583
  12       0.00000    -0.00000    -0.00000     0.00000     0.00000     0.00206
  13       0.00000    -0.00000    -0.00000    -0.00000     0.00000     0.00084
  14      -0.00196    -0.00296    -0.00025    -0.00066    -0.00055    -0.00000
  15       0.00000     0.00000    -0.00000     0.00000     0.00000    -0.04427
  16      -0.00000     0.00000    -0.00000     0.00000    -0.00000    -0.09105
  17      -0.00000    -0.00000     0.00000    -0.00000     0.00000     0.02864
  18      -0.00008    -0.00116    -0.21321    -0.09535    -0.41759     0.00000
  19       0.00102    -0.00057     0.43012    -0.04272    -0.20784    -0.00000
  20      -0.00173     0.00045     0.00593    -0.46680     0.10463    -0.00000
  21       0.00000    -0.00000    -0.00000     0.00000     0.00000     0.00050
  22       2.18994    -0.76457    -0.00012    -0.00023     0.00014    -0.00000
  23       0.78174     2.20585    -0.00007    -0.00012    -0.00019     0.00000
  24      -0.00000     0.00000     0.00000     0.00000     0.00000     0.00182
  25      -0.00000     0.00000     0.00000     0.00000     0.00000    -0.00089
  26      -0.00000    -0.00000     0.00000     0.00000     0.00000    -0.00038
  27      -0.00009    -0.00085     1.00834    -0.80535    -0.43073     0.00000
  28       0.00161     0.00232     0.81103     0.52794     0.97248    -0.00000
  29      -0.00472     0.00238    -0.41299    -0.98010     0.87416    -0.00000
  30       0.00000    -0.00000     0.00000    -0.00000     0.00000    -0.06138
  31       0.00000     0.00000     0.00000     0.00000     0.00000     0.15875
  32      -0.00000    -0.00000    -0.00000     0.00000    -0.00000     0.04728
  33      -0.00000    -0.00000     0.00000    -0.00000     0.00000     0.63139
  34       0.00000    -0.00000     0.00000    -0.00000     0.00000     1.29801
  35      -0.00000    -0.00000    -0.00000    -0.00000    -0.00000    -0.21387
  36       0.00965     0.01458    -0.00022    -0.00058    -0.00048    -0.00000
  37       3.55140     0.02677     0.00112     0.00194    -0.00095     0.00000
  38       0.02677     3.57460    -0.00001    -0.00023     0.00163     0.00000
  39       0.00112    -0.00001     1.45657     0.01512    -0.00478     0.00000
  40       0.00194    -0.00023     0.01512     1.48759     0.00259    -0.00000
  41      -0.00095     0.00163    -0.00478     0.00259     1.49301     0.00000
  42       0.00000     0.00000     0.00000    -0.00000     0.00000     1.49139
  43       0.00000    -0.00000     0.00000    -0.00000     0.00000    -0.01826
  44      -0.00000    -0.00000     0.00000    -0.00000     0.00000     0.00105
  45      -1.10970     0.77789    -0.00182    -0.00340     0.00338    -0.00000
  46      -0.79269    -1.13380    -0.00135    -0.00208    -0.00177    -0.00000
  47       0.00299     0.00452     0.00046     0.00123     0.00102    -0.00000
  48       0.00000     0.00000    -0.00000    -0.00000     0.00000     0.07202
  49      -0.00000     0.00000     0.00000     0.00000     0.00000     0.09604
  50       0.00000    -0.00000    -0.00000    -0.00000    -0.00000    -0.14771
  51      -0.02336    -0.03529    -0.00094    -0.00248    -0.00207    -0.00000
  52       0.00000    -0.00000    -0.00000    -0.00000    -0.00000     0.00347
  53       0.00000    -0.00000     0.00000    -0.00000    -0.00000    -0.10949
  54       0.00000    -0.00000    -0.00000     0.00000    -0.00000    -0.63545
  55       0.01517     0.02293     0.00270     0.00712     0.00594     0.00000

           43          44          45          46          47          48  
       ----------- ----------- ----------- ----------- ----------- -----------
   1      -0.00000     0.00000     0.00001    -0.00032     0.05520     0.00000
   2       0.06232    -0.06257    -0.00000     0.00000    -0.00000     0.20684
   3      -0.01619     0.01648    -0.00000     0.00000    -0.00000     0.02683
   4       0.06896     0.05979    -0.00000     0.00000     0.00000     0.15453
   5       0.00000    -0.00000     0.00003    -0.00106     0.54834     0.00000
   6      -0.13555    -0.03700     0.00000     0.00000     0.00000    -0.25571
   7       0.04271    -0.15913    -0.00000    -0.00000     0.00000     0.10547
   8      -0.08461    -0.01976    -0.00000     0.00000    -0.00000    -0.04868
   9      -0.00035     0.00079     0.00000    -0.00000    -0.00000    -0.00000
  10       0.00000     0.00000    -0.00011     0.00426    -1.34500     0.00000
  11      -0.00190    -0.00068     0.00000     0.00000     0.00000    -0.00206
  12       0.00056    -0.00028    -0.00000     0.00000     0.00000     0.00086
  13      -0.00117    -0.00639    -0.00000     0.00000     0.00000     0.00278
  14      -0.00000     0.00000    -0.00011     0.00434    -1.65731    -0.00000
  15       0.08002    -0.02945    -0.00000    -0.00000    -0.00000     0.29867
  16      -0.05269    -0.01624    -0.00000     0.00000    -0.00000    -0.05135
  17      -0.01750    -0.10097     0.00000    -0.00000    -0.00000    -0.03697
  18       0.00000     0.00000     0.00008    -0.00021     0.00131     0.00000
  19      -0.00000    -0.00000     0.00016     0.00001     0.00013    -0.00000
  20      -0.00000    -0.00000    -0.00023    -0.00014     0.00094    -0.00000
  21       0.00014    -0.00031    -0.00000     0.00000     0.00000    -0.00001
  22      -0.00000    -0.00000    -0.46275    -0.12844    -0.00191    -0.00000
  23      -0.00000    -0.00000     0.12921    -0.45921    -0.00758    -0.00000
  24       0.00198    -0.00089     0.00000     0.00000    -0.00000     0.00149
  25      -0.00027    -0.00175     0.00000     0.00000    -0.00000     0.00053
  26       0.00009    -0.00202     0.00000     0.00000    -0.00000     0.00058
  27      -0.00000     0.00000    -0.00020     0.00032    -0.00047     0.00000
  28      -0.00000     0.00000     0.00000    -0.00129     0.00099    -0.00000
  29      -0.00000    -0.00000     0.00259     0.00035    -0.00025     0.00000
  30       0.15288    -0.06083     0.00000    -0.00000    -0.00000    -0.08977
  31       0.06943     0.02347    -0.00000    -0.00000    -0.00000    -0.00494
  32      -0.05058    -0.16181    -0.00000     0.00000    -0.00000     0.01995
  33      -0.02360    -1.31026     0.00000    -0.00000    -0.00000    -0.01558
  34      -0.25171     0.62507     0.00000    -0.00000     0.00000    -0.24802
  35      -1.45365    -0.08393     0.00000    -0.00000    -0.00000    -0.41807
  36       0.00000     0.00000    -0.00010     0.00378    -4.08302    -0.00000
  37       0.00000    -0.00000    -1.10970    -0.79269     0.00299     0.00000
  38      -0.00000    -0.00000     0.77789    -1.13380     0.00452     0.00000
  39       0.00000     0.00000    -0.00182    -0.00135     0.00046    -0.00000
  40      -0.00000    -0.00000    -0.00340    -0.00208     0.00123    -0.00000
  41       0.00000     0.00000     0.00338    -0.00177     0.00102     0.00000
  42      -0.01826     0.00105    -0.00000    -0.00000    -0.00000     0.07202
  43       1.51875    -0.00223    -0.00000    -0.00000     0.00000    -0.19053
  44      -0.00223     1.48241     0.00000     0.00000     0.00000     0.02590
  45      -0.00000     0.00000     1.45040    -0.00171     0.00021    -0.00000
  46      -0.00000     0.00000    -0.00171     1.50781    -0.00801    -0.00000
  47       0.00000     0.00000     0.00021    -0.00801   -15.68107     0.00000
  48      -0.19053     0.02590    -0.00000    -0.00000     0.00000     0.47470
  49       0.00655    -0.15899     0.00000    -0.00000    -0.00000     0.00760
  50      -0.06484    -0.09117    -0.00000     0.00000    -0.00000    -0.00347
  51       0.00000     0.00000    -0.00042     0.01621    -5.82618     0.00000
  52      -0.65543     0.03742     0.00000     0.00000    -0.00000     0.27080
  53       0.03379     0.63312    -0.00000    -0.00000    -0.00000     0.01152
  54      -0.00028    -0.11084     0.00000    -0.00000     0.00000    -0.09645
  55      -0.00000    -0.00000     0.00122    -0.04655     2.14178     0.00000

           49          50          51          52          53          54  
       ----------- ----------- ----------- ----------- ----------- -----------
   1      -0.00000     0.00000    -0.37922     0.00000     0.00000     0.00000
   2      -0.13253    -0.08800    -0.00000    -0.09807    -0.08975     0.05579
   3       0.17359    -0.19518     0.00000     0.03203     0.04935     0.13360
   4       0.14597     0.15229     0.00000    -0.09965     0.10412    -0.01526
   5      -0.00000    -0.00000     0.80441     0.00000    -0.00000     0.00000
   6      -0.11912     0.00381     0.00000     0.06399    -0.02933    -0.03816
   7      -0.23554    -0.11233     0.00000    -0.02415    -0.07551     0.01435
   8       0.10069    -0.25896     0.00000     0.04054    -0.00009     0.07001
   9      -0.00346     0.00193    -0.00000    -0.00061    -0.00150    -0.00174
  10      -0.00000    -0.00000     0.22843    -0.00000    -0.00000     0.00000
  11      -0.00589     0.01522     0.00000    -0.00229     0.00014    -0.00960
  12       0.00430    -0.00264     0.00000     0.00031     0.00185     0.00242
  13       0.01503     0.00753     0.00000    -0.00209     0.00999    -0.00018
  14      -0.00000     0.00000    -0.21996    -0.00000    -0.00000     0.00000
  15      -0.01871    -0.05320    -0.00000    -0.12049    -0.02066     0.06392
  16       0.08737    -0.24648     0.00000     0.06169    -0.00344     0.09875
  17      -0.24953    -0.08293    -0.00000     0.01628    -0.11389    -0.01272
  18      -0.00000     0.00000     0.00341    -0.00000    -0.00000    -0.00000
  19       0.00000    -0.00000     0.00035     0.00000    -0.00000     0.00000
  20       0.00000    -0.00000     0.00245     0.00000    -0.00000     0.00000
  21       0.00171    -0.00096    -0.00000     0.00131     0.00331     0.00384
  22      -0.00000     0.00000    -0.00495     0.00000     0.00000     0.00000
  23      -0.00000    -0.00000    -0.01968     0.00000    -0.00000    -0.00000
  24       0.00659    -0.00421     0.00000     0.00137     0.01214     0.01751
  25       0.00446     0.00737     0.00000    -0.00674     0.01828    -0.01233
  26       0.00225    -0.00088     0.00000    -0.00017     0.00458     0.00484
  27       0.00000    -0.00000     0.00367    -0.00000    -0.00000     0.00000
  28       0.00000    -0.00000    -0.00774     0.00000    -0.00000     0.00000
  29       0.00000    -0.00000     0.00191     0.00000     0.00000     0.00000
  30       0.01358     0.01010    -0.00000     0.05601     0.00776    -0.02072
  31       0.02705    -0.06866    -0.00000     0.00986    -0.00025     0.01358
  32       0.06744     0.02566    -0.00000    -0.01069     0.01499     0.00340
  33      -0.46412    -0.04913    -0.00000    -0.02171    -0.60929    -0.17310
  34      -0.03412     0.40054     0.00000     0.13302     0.16653    -0.60630
  35       0.03840    -0.23522    -0.00000     0.64717    -0.05278     0.09738
  36      -0.00000    -0.00000    -2.12145     0.00000    -0.00000     0.00000
  37      -0.00000     0.00000    -0.02336     0.00000     0.00000     0.00000
  38       0.00000    -0.00000    -0.03529    -0.00000    -0.00000    -0.00000
  39       0.00000    -0.00000    -0.00094    -0.00000     0.00000    -0.00000
  40       0.00000    -0.00000    -0.00248    -0.00000    -0.00000     0.00000
  41       0.00000    -0.00000    -0.00207    -0.00000    -0.00000    -0.00000
  42       0.09604    -0.14771    -0.00000     0.00347    -0.10949    -0.63545
  43       0.00655    -0.06484     0.00000    -0.65543     0.03379    -0.00028
  44      -0.15899    -0.09117     0.00000     0.03742     0.63312    -0.11084
  45       0.00000    -0.00000    -0.00042     0.00000    -0.00000     0.00000
  46      -0.00000     0.00000     0.01621     0.00000    -0.00000    -0.00000
[...]
   7       0.00016    -0.00001     0.00000    -0.00000     0.00000    -0.00000
   8      -0.00003     0.00000     0.00000    -0.00000    -0.00000    -0.00000
   9      -0.00718    -0.00000     0.00000    -0.00000     0.00000     0.00000
  10      -0.00062     0.00001    -0.00000     0.00000     0.00000    -0.00000
  11       0.00011    -0.00000    -0.00000     0.00000     0.00000     0.00000
  12      -0.00748    -0.00000     0.00000    -0.00000     0.00000     0.00000
  13      -0.00066     0.00001    -0.00000     0.00000    -0.00000     0.00000
  14       0.00012    -0.00000    -0.00000    -0.00000     0.00000     0.00000
  15       0.00103     0.00000    -0.00000     0.00000     0.00000    -0.00000
  16       0.00009    -0.00000     0.00000    -0.00000     0.00000    -0.00000
  17      -0.00002     0.00000     0.00000     0.00000    -0.00000    -0.00000
  18      -0.00000    -0.00000     0.00000    -0.19080     0.00759    -0.58044
  19       0.00000    -0.00000     0.00000     2.04387    -0.09882    -0.33026
  20      -0.00000     0.00000     0.00000    -0.16151    -0.18351     0.02503
  21       0.00000     0.00000    -0.00000     0.19647     0.14880     1.18615
  22       0.00000     0.00000     0.00000     0.05598     2.05425    -0.27037
  23       0.00000     0.00000    -0.00000    -0.00565    -0.15637    -0.58575
  24       0.00000     0.00000     0.00000     0.13125    -0.00519     0.43304
  25      -0.00000     0.00000    -0.00000    -1.40556     0.06796     0.22691
  26       0.00000    -0.00000    -0.00000     0.11107     0.12620    -0.01720
  27      -0.00000    -0.00000     0.00000    -0.13507    -0.10229    -0.78070
  28      -0.00000    -0.00000    -0.00000    -0.03850    -1.41270     0.18576
  29       0.00000    -0.00000     0.00000     0.00392     0.10757     0.43669
  30       0.00000    -0.00000     0.00000    -0.04926     0.00197    -0.14469
  31       0.00000     0.00000     0.00000     0.52774    -0.02552    -0.08516
  32      -0.00000    -0.00000     0.00000    -0.04170    -0.04738     0.00645
  33       0.00000    -0.00000     0.00000     0.05074     0.03843     0.31085
  34      -0.00000    -0.00000    -0.00000     0.01445     0.53042    -0.06972
  35       0.00000    -0.00000     0.00000    -0.00145    -0.04037    -0.14606
  36      -0.69674    -0.64588     0.67178     0.00000    -0.00000     0.00000
  37      -0.72968    -0.02584     0.33062    -0.00000    -0.00000     0.00000
  38       0.06132     2.03169     1.92661    -0.00000    -0.00000    -0.00000
  39       2.80016     0.02233     0.03229     0.00000    -0.00000    -0.00000
  40      -0.52416     0.66177     0.04643    -0.00000    -0.00000    -0.00000
  41      -0.70788     1.91531    -2.04763     0.00000     0.00000    -0.00000
  42       0.26236     0.00171     0.00039     0.00000    -0.00000     0.00000
  43      -0.09601     0.03168    -0.02303    -0.00000    -0.00000    -0.00000
  44      -0.05727     0.02068    -0.33179    -0.00000    -0.00000     0.00000
  45       0.01155    -0.68779    -0.63453    -0.00000    -0.00000    -0.00000
  46       0.33377     0.30234    -0.31447     0.00000    -0.00000    -0.00000
  47       0.34304     0.01209    -0.15477    -0.00000     0.00000    -0.00000
  48      -0.02888    -0.95106    -0.90187    -0.00000    -0.00000    -0.00000
  49      -1.30736    -0.01045    -0.01512     0.00000     0.00000     0.00000
  50       0.24599    -0.30978    -0.02174     0.00000     0.00000     0.00000
  51       0.33900    -0.89658     0.95852     0.00000    -0.00000     0.00000
  52      -0.12254    -0.00081    -0.00018    -0.00000     0.00000    -0.00000
  53       0.04495    -0.01483     0.01079     0.00000    -0.00000    -0.00000
  54       0.02747    -0.00969     0.15532    -0.00000     0.00000    -0.00000
  55      -0.00553     0.32196     0.29703    -0.00000    -0.00000    -0.00000

           49          50          51          52          53          54  
       ----------- ----------- ----------- ----------- ----------- -----------
   1       0.00000    -0.00000     5.41594     0.00000    -0.00000     0.00000
   2       0.00001    -0.00000     9.99577     0.00000    -0.00000     0.00000
   3      -0.00000     0.00000    -5.35031    -0.00000     0.00000    -0.00000
   4       0.00001    -0.00000     8.92448     0.00000    -0.00000     0.00000
   5      -0.00000     0.00000     0.15918     0.00000    -0.00000    -0.00000
   6       0.00000    -0.00000     0.00000     0.28085     0.37232    -3.03481
   7       0.00000     0.00000     0.00000    -3.05218    -0.19457    -0.30573
   8       0.00000     0.00000    -0.00000     0.22963    -3.04154    -0.35194
   9      -0.00000     0.00000    -0.00000    -1.46215    -1.94003    15.81324
  10       0.00000     0.00000    -0.00000    15.89039     1.01381     1.59302
  11       0.00000    -0.00000     0.00000    -1.19549    15.84827     1.83383
  12      -0.00000     0.00000    -0.00000    -0.31827    -0.42212     3.44074
  13      -0.00000    -0.00000    -0.00000     3.45891     0.22059     0.34662
  14      -0.00000    -0.00000     0.00000    -0.26023     3.44836     0.39902
  15       0.00000    -0.00000     0.00000     0.03782     0.05017    -0.40895
  16      -0.00000     0.00000     0.00000    -0.41106    -0.02622    -0.04120
  17       0.00000     0.00000    -0.00000     0.03093    -0.40986    -0.04743
  18       1.03426    -0.03798    -1.89553    -0.00000     0.00000    -0.00000
  19       0.19578     0.14873    -0.00107    -0.00000    -0.00000     0.00000
  20       0.06184     2.07189     0.00008    -0.00000    -0.00000     0.00000
  21       0.00318     0.01415    -1.88979    -0.00000     0.00000    -0.00000
  22      -0.15111     0.19410    -0.00087    -0.00000    -0.00000    -0.00000
  23      -1.03744     0.02383    -1.89555    -0.00000     0.00000    -0.00000
  24      -0.70859     0.02602    -4.84810    -0.00000     0.00000    -0.00000
  25      -0.13413    -0.10190     0.00078    -0.00000     0.00000    -0.00000
  26      -0.04237    -1.41949    -0.00006    -0.00000     0.00000    -0.00000
  27      -0.00218    -0.00969    -4.85229    -0.00000     0.00000    -0.00000
  28       0.10353    -0.13298     0.00064     0.00000     0.00000     0.00000
  29       0.71076    -0.01632    -4.84809    -0.00000     0.00000    -0.00000
  30       0.26590    -0.00976    -0.94919    -0.00000     0.00000    -0.00000
  31       0.05033     0.03824    -0.00032     0.00000    -0.00000     0.00000
  32       0.01590     0.53266     0.00002     0.00000    -0.00000    -0.00000
  33       0.00082     0.00364    -0.94744    -0.00000     0.00000    -0.00000
  34      -0.03885     0.04990    -0.00027     0.00000    -0.00000     0.00000
  35      -0.26672     0.00613    -0.94919    -0.00000     0.00000    -0.00000
  36      -0.00000    -0.00000     0.00000     0.73194     0.97135    -7.91749
  37      -0.00000    -0.00000     0.00000    -7.95458    -0.50761    -0.79754
  38      -0.00000    -0.00000    -0.00000     0.59845    -7.93503    -0.91818
  39       0.00000     0.00000     0.00000     0.73216     0.97139    -7.91781
  40      -0.00000     0.00000    -0.00000    -0.00003     0.00005     0.00006
  41       0.00000    -0.00000     0.00000     0.73194     0.97134    -7.91749
  42       0.00000    -0.00000     0.00000    -7.95537    -0.50762    -0.79764
  43       0.00000    -0.00000    -0.00000     0.59863    -7.93535    -0.91821
  44      -0.00000     0.00000     0.00000    -7.95457    -0.50755    -0.79760
  45      -0.00000     0.00000    -0.00000     0.59845    -7.93503    -0.91818
  46       0.00000    -0.00000     0.00000     0.39702     0.52662    -4.29247
  47       0.00000     0.00000     0.00000    -4.31478    -0.27521    -0.43234
  48       0.00000     0.00000    -0.00000     0.32462    -4.30198    -0.49780
  49       0.00000    -0.00000     0.00000     0.39709     0.52668    -4.29292
  50       0.00000    -0.00000     0.00000    -0.00001     0.00008     0.00008
  51      -0.00000    -0.00000     0.00000     0.39702     0.52661    -4.29247
  52      -0.00000     0.00000     0.00000    -4.31499    -0.27523    -0.43247
  53      -0.00000     0.00000    -0.00000     0.32467    -4.30243    -0.49784
  54       0.00000    -0.00000     0.00000    -4.31478    -0.27513    -0.43241
  55       0.00000     0.00000    -0.00000     0.32461    -4.30198    -0.49779

           55  
       -----------
   1       3.08509
   2       8.79427
   3      -0.50296
   4       8.81695
   5       0.70840
   6      -0.00000
   7      -0.00000
   8       0.00000
   9       0.00000
  10       0.00000
  11      -0.00000
  12       0.00000
  13       0.00000
  14      -0.00000
  15      -0.00000
  16      -0.00000
  17       0.00000
  18      -3.54773
  19       0.00010
  20      -0.00001
  21      -3.54825
  22       0.00008
  23      -3.54773
  24      -4.24698
  25      -0.00004
  26       0.00000
  27      -4.24677
  28      -0.00003
  29      -4.24698
  30      -1.31084
  31       0.00001
  32      -0.00000
  33      -1.31091
  34       0.00001
  35      -1.31084
  36      -0.00000
  37      -0.00000
  38       0.00000
  39      -0.00000
  40      -0.00000
  41      -0.00000
  42      -0.00000
  43       0.00000
  44      -0.00000
  45       0.00000
  46      -0.00000
  47      -0.00000
  48       0.00000
  49      -0.00000
  50       0.00000
  51      -0.00000
  52      -0.00000
  53       0.00000
  54      -0.00000
  55       0.00000
  int_init: cando_txs set to always be  F
                                NWChem TDDFT Module
                                -------------------


            General Information
            -------------------
           No. of orbitals :     110
            Alpha orbitals :      55
             Beta orbitals :      55
        Alpha frozen cores :       0
         Beta frozen cores :       0
     Alpha frozen virtuals :       0
      Beta frozen virtuals :       0
         Spin multiplicity :       3
    Number of AO functions :      55
        Use of symmetry is : off
      Symmetry adaption is : off
         Schwarz screening :  0.10D-07

              XC Information
              --------------
              Hartree-Fock (Exact) Exchange   1.00          
              LC-wPBE(h)Exchange Functional   1.00          
     Perdew 1991 LDA Correlation Functional   1.00 local    
    PerdewBurkeErnz. Correlation Functional   1.00 non-local
           Alpha           :  0.00
           Beta            :  1.00
           Gamma           :  0.43

             TDDFT Information
             -----------------
          Calculation type : TDDFT             
         Wavefunction type : Unrestricted
          No. of electrons :       8
           Alpha electrons :       5
            Beta electrons :       3
              No. of roots :       5
          Max subspacesize :    5000
            Max iterations :     100
               Target root :       1
           Target symmetry : none
      Symmetry restriction : off
                 Algorithm : Optimal
        Davidson threshold :  0.10D-03

            Memory Information
            ------------------
          Available GA space size is       52428793950 doubles
          Available MA space size is        4194412372 doubles
          Length of a trial vector is          250     156
          Algorithm : Incore multiple tensor contraction
          Estimated peak GA usage is           8632260 doubles
          Estimated peak MA usage is             18000 doubles

    5 smallest eigenvalue differences (eV) 
--------------------------------------------------------
  No. Spin  Occ  Vir  Irrep   E(Occ)    E(Vir)   E(Diff)
--------------------------------------------------------
    1    2    3    4 a        -0.471    -0.056    11.281
    2    2    3    5 a        -0.471    -0.056    11.281
    3    2    3    6 a        -0.471     0.124    16.178
    4    2    3    7 a        -0.471     0.155    17.031
    5    2    3    8 a        -0.471     0.161    17.208
--------------------------------------------------------

  Entering Davidson iterations
  Unrestricted

  Iter   NTrls   NConv    DeltaV     DeltaE      Time   
  ----  ------  ------  ---------  ---------  --------- 
    1      5       0     0.23E+00   0.10+100        1.3
    2     15       0     0.85E-01   0.26E-01        2.2
 ------------------------------------------------------------------------
 tddft_diagon: negative excitation energy                   0
 ------------------------------------------------------------------------
 ------------------------------------------------------------------------
 tddft_diagon: negative excitation energy                   0
 ------------------------------------------------------------------------
 ------------------------------------------------------------------------
  current input line : 
     0: 
 ------------------------------------------------------------------------
 ------------------------------------------------------------------------
 tddft_diagon: negative excitation energy                   0
 ------------------------------------------------------------------------
 ------------------------------------------------------------------------
  current input line : 
     0: 
 ------------------------------------------------------------------------
 ------------------------------------------------------------------------
 This type of error is most commonly associated with calculations not reaching convergence criteria
 ------------------------------------------------------------------------
 For more information see the NWChem manual at https://nwchemgit.github.io

 tddft_diagon: negative excitation energy                   0
 ------------------------------------------------------------------------
 ------------------------------------------------------------------------
  current input line : 
     0: 
 ------------------------------------------------------------------------
 ------------------------------------------------------------------------
 This type of error is most commonly associated with calculations not reaching convergence criteria
 ------------------------------------------------------------------------
 For more information see the NWChem manual at https://nwchemgit.github.io


 For further details see manual section:                                                                                                                                                                                                                                                                
 tddft_diagon: negative excitation energy                   0
 ------------------------------------------------------------------------
 ------------------------------------------------------------------------
  current input line : 
     0: 
 ------------------------------------------------------------------------
 ------------------------------------------------------------------------
 This type of error is most commonly associated with calculations not reaching convergence criteria
 ------------------------------------------------------------------------
 For more information see the NWChem manual at https://nwchemgit.github.io


 For further details see manual section:                                                                                                                                                                                                                                                                
 tddft_diagon: negative excitation energy                   0
 ------------------------------------------------------------------------
 ------------------------------------------------------------------------
  current input line : 
     0: 
 ------------------------------------------------------------------------
 ------------------------------------------------------------------------
 This type of error is most commonly associated with calculations not reaching convergence criteria
 ------------------------------------------------------------------------
 For more information see the NWChem manual at https://nwchemgit.github.io


 For further details see manual section:                                                                                                                                                                                                                                                                
 tddft_diagon: negative excitation energy                   0
 ------------------------------------------------------------------------
 ------------------------------------------------------------------------
  current input line : 
     0: 
 ------------------------------------------------------------------------
 ------------------------------------------------------------------------
 This type of error is most commonly associated with calculations not reaching convergence criteria
 ------------------------------------------------------------------------
 For more information see the NWChem manual at https://nwchemgit.github.io


 For further details see manual section:                                                                                                                                                                                                                                                                
 tddft_diagon: negative excitation energy                   0
 ------------------------------------------------------------------------
 ------------------------------------------------------------------------
  current input line : 
     0: 
 ------------------------------------------------------------------------
 ------------------------------------------------------------------------
 This type of error is most commonly associated with calculations not reaching convergence criteria
 ------------------------------------------------------------------------
 For more information see the NWChem manual at https://nwchemgit.github.io


 For further details see manual section:                                                                                                                                                                                                                                                                
  current input line : 
    23:  task tddft energy
 ------------------------------------------------------------------------
 ------------------------------------------------------------------------
 This type of error is most commonly associated with calculations not reaching convergence criteria
 ------------------------------------------------------------------------
 For more information see the NWChem manual at https://nwchemgit.github.io


 For further details see manual section:                                                                                                                                                                                                                                                                
 This type of error is most commonly associated with calculations not reaching convergence criteria
 ------------------------------------------------------------------------
 For more information see the NWChem manual at https://nwchemgit.github.io


 For further details see manual section:                                                                                                                                                                                                                                                                

 For further details see manual section:                                                                                                                                                                                                                                                                
