 argument  1 = /home/aditisingh4812/nw_chem/nwchem-run/nwchem-run/tddft/open/open_atom/geom-MOL/p.nw
                                         
                                         


             Northwest Computational Chemistry Package (NWChem) 7.2.3
             --------------------------------------------------------


                    Environmental Molecular Sciences Laboratory
                       Pacific Northwest National Laboratory
                                Richland, WA 99352

                              Copyright (c) 1994-2022
                       Pacific Northwest National Laboratory
                            Battelle Memorial Institute

             NWChem is an open-source computational chemistry package
                        distributed under the terms of the
                      Educational Community License (ECL) 2.0
             A copy of the license is included with this distribution
                              in the LICENSE.TXT file

                                  ACKNOWLEDGMENT
                                  --------------

            This software and its documentation were developed at the
            EMSL at Pacific Northwest National Laboratory, a multiprogram
            national laboratory, operated for the U.S. Department of Energy
            by Battelle under Contract Number DE-AC05-76RL01830. Support
            for this work was provided by the Department of Energy Office
            of Biological and Environmental Research, Office of Basic
            Energy Sciences, and the Office of Advanced Scientific Computing.


           Job information
           ---------------

    hostname        = p16
    program         = /home/aditisingh4812/nw_chem/nwchem-7.2.3-release.revision-d690e065-srconly.2024-08-27/nwchem-7.2.3/bin/LINUX64/nwchem
    date            = Tue Apr 15 00:13:46 2025

    compiled        = Mon_Apr_07_18:51:54_2025
    source          = /home/aditisingh4812/nw_chem/nwchem-7.2.3-release.revision-d690e065-srconly.2024-08-27/nwchem-7.2.3
    nwchem branch   = 7.2.3
    nwchem revision = d690e065
    ga revision     = 5.8.0
    use scalapack   = F
    input           = /home/aditisingh4812/nw_chem/nwchem-run/nwchem-run/tddft/open/open_atom/geom-MOL/p.nw
    prefix          = p.
    data base       = ./p.db
    status          = startup
    nproc           =        8
    time left       =     -1s



           Memory information
           ------------------

    heap     = 2621439998 doubles =  20000.0 Mbytes
    stack    = 2621439995 doubles =  20000.0 Mbytes
    global   = 6553600000 doubles =  50000.0 Mbytes (distinct from heap & stack)
    total    = ********** doubles =  90000.0 Mbytes
    verify   = yes
    hardfail = no 


           Directory information
           ---------------------

  0 permanent = .
  0 scratch   = .




                                NWChem Input Module
                                -------------------



 Scaling coordinates for geometry "geometry" by  1.889725989
 (inverse scale =  0.529177249)



                             Geometry "geometry" -> ""
                             -------------------------

 Output coordinates in angstroms (scale by  1.889725989 to convert to a.u.)

  No.       Tag          Charge          X              Y              Z
 ---- ---------------- ---------- -------------- -------------- --------------
    1 P                   15.0000     0.00000000     0.00000000     0.00000000

      Atomic Mass 
      ----------- 

      P                 30.973760


 Effective nuclear repulsion energy (a.u.)       0.0000000000

            Nuclear Dipole moment (a.u.) 
            ----------------------------
        X                 Y               Z
 ---------------- ---------------- ----------------
     0.0000000000     0.0000000000     0.0000000000


            XYZ format geometry
            -------------------
     1
 geometry
 P                     0.00000000     0.00000000     0.00000000



 Summary of "ao basis" -> "" (cartesian)
 ------------------------------------------------------------------------------
       Tag                 Description            Shells   Functions and Types
 ---------------- ------------------------------  ------  ---------------------
 *                        aug-cc-pVTZ                 on all atoms 


  pbe96 is a nonlocal functional; adding pw91lda local functional. 

                                 NWChem DFT Module
                                 -----------------


                      Basis "ao basis" -> "ao basis" (cartesian)
                      -----
  P (Phosphorous)
  ---------------
            Exponent  Coefficients 
       -------------- ---------------------------------------------------------
  1 S  3.12400000E+05  0.000058
  1 S  4.68000000E+04  0.000448
  1 S  1.06500000E+04  0.002349
  1 S  3.01800000E+03  0.009783
  1 S  9.86800000E+02  0.034147
  1 S  3.57400000E+02  0.100204
  1 S  1.39600000E+02  0.234372
  1 S  5.76300000E+01  0.382434
  1 S  2.46000000E+01  0.318088
  1 S  1.01200000E+01  0.070779
  1 S  4.28300000E+00 -0.001818
  1 S  1.80500000E+00  0.002162
  1 S  2.78200000E-01  0.000432

  2 S  3.12400000E+05 -0.000016
  2 S  4.68000000E+04 -0.000122
  2 S  1.06500000E+04 -0.000640
  2 S  3.01800000E+03 -0.002674
  2 S  9.86800000E+02 -0.009498
  2 S  3.57400000E+02 -0.028935
  2 S  1.39600000E+02 -0.074512
  2 S  5.76300000E+01 -0.149938
  2 S  2.46000000E+01 -0.189467
  2 S  1.01200000E+01  0.036327
  2 S  4.28300000E+00  0.528816
  2 S  1.80500000E+00  0.519115
  2 S  2.78200000E-01 -0.009257

  3 S  3.12400000E+05  0.000004
  3 S  4.68000000E+04  0.000033
  3 S  1.06500000E+04  0.000176
  3 S  3.01800000E+03  0.000734
  3 S  9.86800000E+02  0.002618
  3 S  3.57400000E+02  0.007979
  3 S  1.39600000E+02  0.020794
  3 S  5.76300000E+01  0.042445
  3 S  2.46000000E+01  0.056344
  3 S  1.01200000E+01 -0.012736
  3 S  4.28300000E+00 -0.196495
  3 S  1.80500000E+00 -0.353555
  3 S  2.78200000E-01  0.700912

  4 S  6.15800000E-01  1.000000

  5 S  1.05500000E-01  1.000000

  6 S  4.09000000E-02  1.000000

  7 P  5.04900000E+02  0.002337
  7 P  1.19400000E+02  0.018541
  7 P  3.79600000E+01  0.084969
  7 P  1.39500000E+01  0.244615
  7 P  5.45700000E+00  0.422766
  7 P  2.17700000E+00  0.368439
  7 P  2.87700000E-01 -0.003790

  8 P  5.04900000E+02 -0.000555
  8 P  1.19400000E+02 -0.004459
  8 P  3.79600000E+01 -0.020635
  8 P  1.39500000E+01 -0.061769
  8 P  5.45700000E+00 -0.108924
  8 P  2.17700000E+00 -0.105599
  8 P  2.87700000E-01  0.576981

  9 P  8.01000000E-01  1.000000

 10 P  9.71400000E-02  1.000000

 11 P  3.07000000E-02  1.000000

 12 D  2.16000000E-01  1.000000

 13 D  6.52000000E-01  1.000000

 14 D  7.75000000E-02  1.000000

 15 F  4.52000000E-01  1.000000

 16 F  1.65000000E-01  1.000000



 Summary of "ao basis" -> "ao basis" (cartesian)
 ------------------------------------------------------------------------------
       Tag                 Description            Shells   Functions and Types
 ---------------- ------------------------------  ------  ---------------------
 P                        aug-cc-pVTZ               16       59   6s5p3d2f




 Summary of "ao basis" -> "ao basis" (cartesian)
 ------------------------------------------------------------------------------
       Tag                 Description            Shells   Functions and Types
 ---------------- ------------------------------  ------  ---------------------
 P                        aug-cc-pVTZ               16       59   6s5p3d2f




                         Geometry "geometry" -> "geometry"
                         ---------------------------------

 Output coordinates in angstroms (scale by  1.889725989 to convert to a.u.)

  No.       Tag          Charge          X              Y              Z
 ---- ---------------- ---------- -------------- -------------- --------------
    1 P                   15.0000     0.00000000     0.00000000     0.00000000

      Atomic Mass 
      ----------- 

      P                 30.973760


 Effective nuclear repulsion energy (a.u.)       0.0000000000

            Nuclear Dipole moment (a.u.) 
            ----------------------------
        X                 Y               Z
 ---------------- ---------------- ----------------
     0.0000000000     0.0000000000     0.0000000000


                      Basis "ao basis" -> "ao basis" (cartesian)
                      -----
  P (Phosphorous)
  ---------------
            Exponent  Coefficients 
       -------------- ---------------------------------------------------------
  1 S  3.12400000E+05  0.543302
  1 S  4.68000000E+04  1.016510
  1 S  1.06500000E+04  1.755212
  1 S  3.01800000E+03  2.838626
  1 S  9.86800000E+02  4.284329
  1 S  3.57400000E+02  5.869663
  1 S  1.39600000E+02  6.783159
  1 S  5.76300000E+01  5.700398
  1 S  2.46000000E+01  2.503865
  1 S  1.01200000E+01  0.286188
  1 S  4.28300000E+00 -0.003857
  1 S  1.80500000E+00  0.002399
  1 S  2.78200000E-01  0.000118

  2 S  3.12400000E+05 -0.154263
  2 S  4.68000000E+04 -0.288533
  2 S  1.06500000E+04 -0.499580
  2 S  3.01800000E+03 -0.811201
  2 S  9.86800000E+02 -1.245815
  2 S  3.57400000E+02 -1.771835
  2 S  1.39600000E+02 -2.254376
  2 S  5.76300000E+01 -2.336327
  2 S  2.46000000E+01 -1.559087
  2 S  1.01200000E+01  0.153550
  2 S  4.28300000E+00  1.172873
  2 S  1.80500000E+00  0.602222
  2 S  2.78200000E-01 -0.002642

  3 S  3.12400000E+05  0.064659
  3 S  4.68000000E+04  0.120830
  3 S  1.06500000E+04  0.209524
  3 S  3.01800000E+03  0.339765
  3 S  9.86800000E+02  0.523711
  3 S  3.57400000E+02  0.745212
  3 S  1.39600000E+02  0.959608
  3 S  5.76300000E+01  1.008790
  3 S  2.46000000E+01  0.707193
  3 S  1.01200000E+01 -0.082111
  3 S  4.28300000E+00 -0.664744
  3 S  1.80500000E+00 -0.625614
  3 S  2.78200000E-01  0.305087

  4 S  6.15800000E-01  0.495439

  5 S  1.05500000E-01  0.131932

  6 S  4.09000000E-02  0.064819

  7 P  5.04900000E+02  8.302460
  7 P  1.19400000E+02 10.861202
  7 P  3.79600000E+01 11.882536
  7 P  1.39500000E+01  9.787915
  7 P  5.45700000E+00  5.233375
  7 P  2.17700000E+00  1.446032
  7 P  2.87700000E-01 -0.001185

  8 P  5.04900000E+02 -3.255601
  8 P  1.19400000E+02 -4.311739
  8 P  3.79600000E+01 -4.763313
  8 P  1.39500000E+01 -4.079792
  8 P  5.45700000E+00 -2.225681
  8 P  2.17700000E+00 -0.684116
  8 P  2.87700000E-01  0.297840

  9 P  8.01000000E-01  1.080142

 10 P  9.71400000E-02  0.077301

 11 P  3.07000000E-02  0.018317

 12 D  2.16000000E-01  0.112643

 13 D  6.52000000E-01  0.778651

 14 D  7.75000000E-02  0.018736

 15 F  4.52000000E-01  0.246613

 16 F  1.65000000E-01  0.025544



    Basis function labels
    ---------------------
       No.  Atm El Type
       ---  --- -- ----
        1    1 P  s          
        2    1 P  s          
        3    1 P  s          
        4    1 P  s          
        5    1 P  s          
        6    1 P  s          
        7    1 P  px         
        8    1 P  py         
        9    1 P  pz         
       10    1 P  px         
       11    1 P  py         
       12    1 P  pz         
       13    1 P  px         
       14    1 P  py         
       15    1 P  pz         
       16    1 P  px         
       17    1 P  py         
       18    1 P  pz         
       19    1 P  px         
       20    1 P  py         
       21    1 P  pz         
       22    1 P  dxx        
       23    1 P  dxy        
       24    1 P  dxz        
       25    1 P  dyy        
       26    1 P  dyz        
       27    1 P  dzz        
       28    1 P  dxx        
       29    1 P  dxy        
       30    1 P  dxz        
       31    1 P  dyy        
       32    1 P  dyz        
       33    1 P  dzz        
       34    1 P  dxx        
       35    1 P  dxy        
       36    1 P  dxz        
       37    1 P  dyy        
       38    1 P  dyz        
       39    1 P  dzz        
       40    1 P  fxxx       
       41    1 P  fxxy       
       42    1 P  fxxz       
       43    1 P  fxyy       
       44    1 P  fxyz       
       45    1 P  fxzz       
       46    1 P  fyyy       
       47    1 P  fyyz       
       48    1 P  fyzz       
       49    1 P  fzzz       
       50    1 P  fxxx       
       51    1 P  fxxy       
       52    1 P  fxxz       
       53    1 P  fxyy       
       54    1 P  fxyz       
       55    1 P  fxzz       
       56    1 P  fyyy       
       57    1 P  fyyz       
       58    1 P  fyzz       
       59    1 P  fzzz       
  int_init: cando_txs set to always be  F

 Schwarz integral screening summary 
 ---------------------------------- 

        No. of atom pairs =       1
       No. of shell pairs =     136

 Atomic screening 

   value      no.     value      no.     value      no.     value      no.   
  -------- ------    -------- ------    -------- ------    -------- ------   
  0.00D+00      0    1.00D-13      0    1.00D-12      0    1.00D-11      0
  1.00D-10      0    1.00D-09      0    1.00D-08      0    1.00D-07      0
  1.00D-06      0    1.00D-05      0    1.00D-04      0    1.00D-03      0
  1.00D-02      0    1.00D-01      0    1.00D+00      1    1.00D+01      0


 Shell screening 

   value      no.     value      no.     value      no.     value      no.   
  -------- ------    -------- ------    -------- ------    -------- ------   
  0.00D+00      0    1.00D-13      0    1.00D-12      0    1.00D-11      0
  1.00D-10      0    1.00D-09      0    1.00D-08      0    1.00D-07      0
  1.00D-06      0    1.00D-05      0    1.00D-04      1    1.00D-03      5
  1.00D-02      7    1.00D-01     52    1.00D+00     71    1.00D+01      0


  Caching 1-el integrals 
  atom                     1  - neighbor  & S                     1   10.000000000000000       exp AB    3.0700000000000022E-002   3.0700000000000022E-002
 zmins =     0.030700000    0.030700000 lprod =   2 range =        19.98 acc   0.10D-07
 sh     0.000000000
  Center:                     1  Radial Pts. & Wghts. 
    1        0.000002664           5.6699821E-17
    2        0.000021310           1.4515256E-14
    3        0.000071921           3.7201720E-13
    4        0.000170480           3.7161136E-12
    5        0.000332974           2.2151114E-11
    6        0.000575392           9.5254402E-11
    7        0.000913730           3.2697498E-10
    8        0.001363993           9.5175134E-10
    9        0.001942197           2.4425189E-09
   10        0.002664374           5.6756495E-09
   11        0.003546576           1.2170288E-08
   12        0.004604877           2.4422035E-08
   13        0.005855383           4.6353499E-08
   14        0.007314233           8.3906918E-08
   15        0.008997608           1.4580685E-07
   16        0.010921735           2.4452391E-07
   17        0.013102896           3.9747363E-07
   18        0.015557436           6.2848804E-07
   19        0.018301770           9.6960092E-07
   20        0.021352392           1.4631920E-06
   21        0.024725883           2.1645390E-06
   22        0.028438924           3.1448325E-06
   23        0.032508303           4.4947112E-06
   24        0.036950930           6.3283843E-06
   25        0.041783843           8.7884100E-06
   26        0.047024227           1.2051210E-05
   27        0.052689421           1.6333406E-05
   28        0.058796935           2.1899068E-05
   29        0.065364465           2.9067983E-05
   30        0.072409906           3.8225062E-05
   31        0.079951369           4.9830998E-05
   32        0.088007198           6.4434331E-05
   33        0.096595987           8.2685062E-05
   34        0.105736600           1.0535000E-04
   35        0.115448190           1.3333001E-04
   36        0.125750218           1.6767941E-04
   37        0.136662480           2.0962771E-04
   38        0.148205121           2.6060398E-04
   39        0.160398670           3.2226416E-04
   40        0.173264057           3.9652156E-04
   41        0.186822643           4.8558102E-04
   42        0.201096250           5.9197704E-04
   43        0.216107188           7.1861643E-04
   44        0.231878289           8.6882591E-04
   45        0.248432939           1.0464053E-03
   46        0.265795115           1.2556867E-03
   47        0.283989423           1.5016012E-03
   48        0.303041135           1.7897527E-03
   49        0.322976235           2.1265006E-03
   50        0.343821460           2.5190522E-03
   51        0.365604353           2.9755667E-03
   52        0.388353310           3.5052702E-03
   53        0.412097634           4.1185852E-03
   54        0.436867595           4.8272761E-03
   55        0.462694493           5.6446111E-03
   56        0.489610718           6.5855445E-03
   57        0.517649827           7.6669212E-03
   58        0.546846615           8.9077061E-03
   59        0.577237199           1.0329243E-02
   60        0.608859104           1.1955543E-02
   61        0.641751353           1.3813615E-02
   62        0.675954574           1.5933832E-02
   63        0.711511102           1.8350349E-02
   64        0.748465097           2.1101575E-02
   65        0.786862673           2.4230704E-02
   66        0.826752030           2.7786320E-02
   67        0.868183606           3.1823085E-02
   68        0.911210230           3.6402517E-02
   69        0.955887302           4.1593876E-02
   70        1.002272979           4.7475182E-02
   71        1.050428381           5.4134362E-02
   72        1.100417813           6.1670583E-02
   73        1.152309015           7.0195761E-02
   74        1.206173423           7.9836306E-02
   75        1.262086471           9.0735126E-02
   76        1.320127906           1.0305394E-01
   77        1.380382150           1.1697594E-01
   78        1.442938688           1.3270891E-01
   79        1.507892502           1.5048879E-01
   80        1.575344548           1.7058388E-01
   81        1.645402294           1.9329971E-01
   82        1.718180302           2.1898479E-01
   83        1.793800896           2.4803725E-01
   84        1.872394893           2.8091282E-01
   85        1.954102429           3.1813407E-01
   86        2.039073888           3.6030156E-01
   87        2.127470944           4.0810689E-01
   88        2.219467739           4.6234843E-01
   89        2.315252222           5.2395013E-01
   90        2.415027667           5.9398406E-01
   91        2.519014409           6.7369777E-01
   92        2.627451823           7.6454742E-01
   93        2.740600609           8.6823817E-01
   94        2.858745422           9.8677374E-01
   95        2.982197921           1.1225174E+00
   96        3.111300317           1.2782677E+00
   97        3.246429525           1.4573527E+00
   98        3.388002041           1.6637483E+00
   99        3.536479712           1.9022281E+00
  100        3.692376586           2.1785537E+00
  101        3.856267115           2.4997191E+00
  102        4.028796027           2.8742674E+00
  103        4.210690304           3.3127043E+00
  104        4.402773823           3.8280437E+00
  105        4.605985398           4.4365358E+00
  106        4.821401244           5.1586505E+00
  107        5.050263186           6.0204211E+00
  108        5.294014518           7.0553098E+00
  109        5.554346115           8.3068354E+00
  110        5.833256545           9.8323413E+00
  111        6.133131597           1.1708503E+01
  112        6.456851299           1.4039555E+01
  113        6.807936666           1.6969887E+01
  114        7.190755289           2.0703870E+01
  115        7.610816616           2.5538080E+01
  116        8.075208349           3.1915665E+01
  117        8.593263565           4.0522170E+01
  118        9.177622408           5.2463523E+01
  119        9.846006465           6.9618407E+01
  120       10.624370210           9.5393680E+01
  121       11.552951772           1.3651857E+02
  122       12.699161681           2.0793474E+02
  123       14.189371577           3.4902286E+02
  124       16.307290551           6.9718174E+02
  125       19.958211760           2.1055804E+03
     irreducible set of Lebedev Angular points ;
  0.009523809523810  1.000000000000000  0.000000000000000  0.000000000000000
  0.032142857142857  0.577350269189626  0.577350269189626  0.577350269189626
  0.028571428571429  0.459700843380983  0.000000000000000  0.888073833977115
   total no. of   reducible points:  38; test:  1.00000000
  0.012698412698413  1.000000000000000  0.000000000000000  0.000000000000000
  0.022574955908289  0.707106781186547  0.707106781186547  0.000000000000000
  0.021093750000000  0.577350269189626  0.577350269189626  0.577350269189626
  0.020173335537919  0.301511344577764  0.301511344577764  0.904534033733291
   total no. of   reducible points:  50; test:  1.00000000
  0.000513067179734  1.000000000000000  0.000000000000000  0.000000000000000
  0.016604069565742  0.707106781186547  0.707106781186547  0.000000000000000
 -0.029586038961039  0.577350269189626  0.577350269189626  0.577350269189626
  0.026576207082159  0.480384461415261  0.480384461415261  0.733799385705343
  0.016522170993716  0.320772648980776  0.000000000000000  0.947156221362588
   total no. of   reducible points:  74; test:  1.00000000
  0.011544011544012  1.000000000000000  0.000000000000000  0.000000000000000
  0.011943909085856  0.577350269189626  0.577350269189626  0.577350269189626
  0.011110555710603  0.369602846454150  0.369602846454150  0.852518311701268
  0.011876501294537  0.694354006602666  0.694354006602666  0.189063552885395
  0.011812303746904  0.374243039090341  0.000000000000000  0.927330657151172
   total no. of   reducible points:  86; test:  1.00000000
  0.003828270494937  1.000000000000000  0.000000000000000  0.000000000000000
  0.009793737512488  0.577350269189626  0.577350269189626  0.577350269189626
  0.008211737283191  0.185115635344736  0.185115635344736  0.965124035086594
  0.009942814891178  0.690421048382292  0.690421048382292  0.215957291845848
  0.009595471336071  0.395689473055942  0.395689473055942  0.828769981252592
  0.009694996361663  0.478369028812150  0.000000000000000  0.878158910604066
   total no. of   reducible points: 110; test:  1.00000000
  0.000599631368862  1.000000000000000  0.000000000000000  0.000000000000000
  0.007372999718621  0.707106781186547  0.707106781186547  0.000000000000000
  0.007210515360144  0.577350269189626  0.577350269189626  0.577350269189626
  0.007116355493118  0.676441040011426  0.676441040011426  0.291298882209527
  0.006753829486314  0.417496122796545  0.417496122796545  0.807089818359583
  0.007574394159054  0.157467667203908  0.157467667203908  0.974888643677173
  0.006991087353303  0.140355381171318  0.449332832326956  0.882270011260323
   total no. of   reducible points: 146; test:  1.00000000
  0.005544842902037  1.000000000000000  0.000000000000000  0.000000000000000
  0.006071332770671  0.707106781186547  0.707106781186547  0.000000000000000
  0.006383674773515  0.577350269189626  0.577350269189626  0.577350269189626
  0.005183387587748  0.255125262111413  0.255125262111413  0.932642590312691
  0.006317929009814  0.674360146036277  0.674360146036277  0.300793595137701
  0.006201670006589  0.431891069671941  0.431891069671941  0.791795559393492
  0.005477143385137  0.261393136033599  0.000000000000000  0.965232421976448
  0.005968383987681  0.499045316179604  0.144663074432512  0.854415804684659
   total no. of   reducible points: 170; test:  1.00000000
  0.001782340447245  1.000000000000000  0.000000000000000  0.000000000000000
  0.005716905949977  0.707106781186547  0.707106781186547  0.000000000000000
  0.005573383178849  0.577350269189626  0.577350269189626  0.577350269189626
  0.005608704082588  0.671297344269523  0.671297344269523  0.314196994182586
  0.005158237711805  0.289246562757544  0.289246562757544  0.912509096867474
  0.005518771467274  0.444693317871744  0.444693317871744  0.777493219314767
  0.004106777028169  0.129933544765007  0.129933544765007  0.982972302707253
  0.005051846064615  0.345770219761128  0.000000000000000  0.938319218137592
  0.005530248916233  0.159041710538353  0.836036015482459  0.525118572443642
   total no. of   reducible points: 194; test:  1.00000000
 -0.055226399197273  1.000000000000000  0.000000000000000  0.000000000000000
  0.004450274607445  0.577350269189626  0.577350269189626  0.577350269189626
  0.004496841067921  0.449204468739761  0.449204468739761  0.772289253148364
  0.005049153450479  0.252041949021020  0.252041949021020  0.934317778845812
  0.003976408018052  0.698190665844724  0.698190665844724  0.158302205463478
  0.004401400650381  0.658740524346096  0.658740524346096  0.363485684956727
  0.017245443505444  0.040385440500977  0.040385440500977  0.998367683967727
  0.004231083095357  0.582384230971558  0.000000000000000  0.812913653173365
  0.005198069864064  0.354587739051869  0.000000000000000  0.935022745880593
  0.004695720972569  0.227218180899819  0.486466153588665  0.843636521068894
   total no. of   reducible points: 230; test:  1.00000000
 -0.001313769127327  1.000000000000000  0.000000000000000  0.000000000000000
 -0.002522728704859  0.707106781186547  0.707106781186547  0.000000000000000
  0.004186853881701  0.577350269189626  0.577350269189626  0.577350269189626
  0.005315167977811  0.703937339158548  0.703937339158548  0.094575076403713
  0.004047142377086  0.101252624857241  0.101252624857241  0.989694807462905
  0.004112482394407  0.464744872642054  0.464744872642054  0.753673939250816
  0.003595584899759  0.327742065497163  0.327742065497163  0.886098344997499
  0.004256131351428  0.662033866369997  0.662033866369997  0.351315128564633
  0.004229582700647  0.850650808352040  0.000000000000000  0.525731112119134
  0.004080914225781  0.323348454269290  0.115311201100970  0.939227929749916
  0.004071467593831  0.231479015871260  0.524493924092236  0.819343388819120
   total no. of   reducible points: 266; test:  1.00000000
  0.000854591172513  1.000000000000000  0.000000000000000  0.000000000000000
  0.003599119285026  0.577350269189626  0.577350269189626  0.577350269189626
  0.003449788424306  0.351564034557011  0.351564034557011  0.867643624544083
  0.003604822601420  0.656632941021961  0.656632941021961  0.371034178384821
  0.003576729661743  0.472905413258100  0.472905413258100  0.743452042987556
  0.002352101413689  0.096183085226148  0.096183085226148  0.990705621379408
  0.003108953122414  0.221964523629418  0.221964523629418  0.949454317226443
  0.003650045807677  0.701176641608955  0.701176641608955  0.129238672710514
  0.002982344963172  0.264415288706066  0.000000000000000  0.964408914879206
  0.003600820932216  0.571895589187896  0.000000000000000  0.820326419827759
  0.003571540554273  0.251003475177047  0.800072749407395  0.544867737258077
  0.003392312205006  0.123354853258333  0.412772408316853  0.902442529533000
   total no. of   reducible points: 302; test:  1.00000000
  0.003006796749454  1.000000000000000  0.000000000000000  0.000000000000000
  0.003050627745651  0.577350269189626  0.577350269189626  0.577350269189626
  0.001621104600289  0.706896546391232  0.706896546391232  0.024383301669356
  0.003005701484902  0.479468262571203  0.479468262571203  0.734996850587746
  0.002990992529654  0.192753315487802  0.192753315487802  0.962129055136014
  0.002982170644108  0.693035796132712  0.693035796132712  0.198501311223365
  0.002721564237311  0.360830211552009  0.360830211552009  0.860001812127547
  0.003033513795811  0.649848616149617  0.649848616149617  0.394199888605839
  0.003007949555219  0.193294501323034  0.000000000000000  0.981140782843257
  0.002881964603055  0.380049491989930  0.000000000000000  0.924966152698679
  0.002958357626536  0.289955882549957  0.793453785658232  0.535123047718276
  0.003036020026407  0.096841214551040  0.828080150668686  0.552182074349399
  0.002832187403926  0.183343464704166  0.907465826530513  0.378009189874487
   total no. of   reducible points: 350; test:  1.00000000
  0.000526589796822  1.000000000000000  0.000000000000000  0.000000000000000
  0.002548219972003  0.707106781186547  0.707106781186547  0.000000000000000
  0.002512317418927  0.577350269189626  0.577350269189626  0.577350269189626
  0.002530403801186  0.690934630750911  0.690934630750911  0.212646824707552
  0.002014279020919  0.177483605460916  0.177483605460916  0.967987158791473
  0.002501725168403  0.491434263778475  0.491434263778475  0.719016501040843
  0.002513267174598  0.645666470742426  0.645666470742426  0.407712664897770
  0.002302694782227  0.286128901030764  0.286128901030764  0.914472801120872
  0.001462495621595  0.075680843671780  0.075680843671780  0.994255912631278
  0.002445373437313  0.392725976336800  0.392725976336800  0.831584400419232
  0.002417442375639  0.881813287779429  0.000000000000000  0.471598691151316
  0.001910951282180  0.977642811118265  0.000000000000000  0.210272522857307
  0.002416930044325  0.205482369640304  0.868946032287241  0.450233038258263
  0.002512236854563  0.590515704892527  0.799927854385729  0.106801826075805
  0.002496644054553  0.555015236107681  0.771746262691590  0.310428403516654
  0.002236607760438  0.937180985855372  0.334436314534346  0.099217696364292
   total no. of   reducible points: 434; test:  1.00000000
  0.000309512129531  1.000000000000000  0.000000000000000  0.000000000000000
  0.001852379698597  0.577350269189626  0.577350269189626  0.577350269189626
  0.001871790639278  0.704095493822747  0.704095493822747  0.092190407076898
  0.001858812585438  0.680774406645524  0.680774406645524  0.270356088359165
  0.001852028828296  0.637254693925875  0.637254693925875  0.433373868777154
  0.001846715956151  0.504441970780036  0.504441970780036  0.700768575373573
  0.001818471778163  0.421576178401097  0.421576178401097  0.802836877335274
  0.001749564657281  0.331792073647212  0.331792073647212  0.883078727934133
  0.001617210647254  0.238473670142189  0.238473670142189  0.941414158220403
  0.001384737234852  0.145903644915776  0.145903644915776  0.978480583762694
  0.000976433116505  0.060950341155072  0.060950341155072  0.996278129754016
  0.001857161196774  0.611684344200988  0.000000000000000  0.791101929626902
  0.001705153996396  0.396475534819986  0.000000000000000  0.918045287711454
  0.001300321685886  0.172478200990772  0.000000000000000  0.985013335028002
  0.001842866472905  0.561026380862206  0.351828092773352  0.749310611904116
  0.001802658934377  0.474239284255198  0.263471665593795  0.840047488359050
  0.001849830560444  0.598412649788538  0.181664084036021  0.780320742479920
  0.001713904507107  0.379103540769556  0.172079522565688  0.909213475092374
  0.001555213603397  0.277867319058624  0.082130215819325  0.957102074310073
  0.001802239128009  0.503356427107512  0.089992058420749  0.859379855890721
   total no. of   reducible points: 590; test:  1.00000000
  0.000219294208818  1.000000000000000  0.000000000000000  0.000000000000000
  0.001436433617319  0.707106781186547  0.707106781186547  0.000000000000000
  0.001421940344336  0.577350269189626  0.577350269189626  0.577350269189626
  0.000679812351105  0.050872044105024  0.050872044105024  0.997408677652823
  0.000991318423529  0.122819879017883  0.122819879017883  0.984799753572301
  0.001180207833239  0.202689081440879  0.202689081440879  0.958036675983391
  0.001296599602081  0.284774515646429  0.284774515646429  0.915317950483155
  0.001365871427428  0.365671907897803  0.365671907897803  0.855901928697887
  0.001402988604775  0.442826488671347  0.442826488671347  0.779621319527635
  0.001418645563596  0.514061962724974  0.514061962724974  0.686644447264154
  0.001421376741852  0.630640121916680  0.630640121916680  0.452311920313658
  0.001423996475491  0.671688333202261  0.671688333202261  0.312521305001653
  0.001431554042179  0.697979268533688  0.697979268533688  0.160155803498829
  0.000925440149987  0.144686567419531  0.000000000000000  0.989477537495599
  0.001250239995054  0.339026347541122  0.000000000000000  0.940776878793759
  0.001394365843329  0.533580465126351  0.000000000000000  0.845749305193653
  0.001127089094672  0.069440243933494  0.235518789424233  0.969385863498432
  0.001345753760911  0.226900410952946  0.410218247404573  0.883310360522113
  0.001424957283317  0.080255746077753  0.621430241748161  0.779348105702661
  0.001261523341238  0.146799952789657  0.324528434571739  0.934414827052402
  0.001392547106053  0.157150776982473  0.522448218969663  0.838064133458312
  0.001418761677878  0.236570299315725  0.601754663408956  0.762840624604670
  0.001338366684480  0.077148158667657  0.434657551614116  0.897285336132833
  0.001393700862676  0.306293666621073  0.490882658903762  0.815609223203975
  0.001415914757467  0.382247737952479  0.564876814909950  0.731300793659766
   total no. of   reducible points: 770; test:  1.00000000
  0.000143829419053  1.000000000000000  0.000000000000000  0.000000000000000
  0.001125772288287  0.577350269189626  0.577350269189626  0.577350269189626
  0.000494802934195  0.042929635453413  0.042929635453413  0.998155345023847
  0.000735799010913  0.105142685408640  0.105142685408640  0.988883224354686
  0.000888913277130  0.175002486762309  0.175002486762309  0.968890220434707
  0.000988834783892  0.247765337965026  0.247765337965026  0.936602730407163
  0.001053299681709  0.320656712395596  0.320656712395596  0.891267942647606
  0.001092778807015  0.391652074984998  0.391652074984998  0.832596723702352
  0.001114389394063  0.459082587418762  0.459082587418762  0.760582905315251
  0.001123724788052  0.521456388841586  0.521456388841586  0.675400969108414
  0.001125239325244  0.625317024465420  0.625317024465420  0.466858905695743
  0.001126153271816  0.663792674452317  0.663792674452317  0.344613654237438
  0.001130286931124  0.691041039849830  0.691041039849830  0.211954151850184
  0.001134986534364  0.705290700745776  0.705290700745776  0.071624401449956
  0.000682336792711  0.123668676265799  0.000000000000000  0.992323565431490
  0.000945415816045  0.294077711446839  0.000000000000000  0.955781512496548
  0.001074429975386  0.469775384920765  0.000000000000000  0.882785980701182
  0.001129300086569  0.633456324113957  0.000000000000000  0.773778447257375
  0.000843688450090  0.059740486141813  0.202912875277752  0.977372722845310
  0.001075255720449  0.137576040847364  0.460262194248405  0.877058461865803
  0.001108577236864  0.339101652633629  0.503067399966204  0.794942299964208
  0.000956647532378  0.127167519143982  0.281760642244213  0.951020169374390
  0.001080663250717  0.269312074041351  0.433156129172016  0.860143461601762
  0.001126797131196  0.141978645260192  0.625616735858081  0.767102186220558
  0.001022568715358  0.067092846007383  0.379839521685916  0.922616110730809
  0.001108960267713  0.070577381832562  0.551750542142352  0.831017552413474
  0.001122790653436  0.278388847788215  0.602961915615919  0.747620610834086
  0.001032401847117  0.197957893891741  0.358960632958910  0.912118378409121
  0.001107249382284  0.208730706110327  0.534866643813548  0.818748536281022
  0.001121780048520  0.405512213787284  0.567499754607437  0.716591845467024
   total no. of   reducible points: 974; test:  1.00000000
  0.000110518923327  1.000000000000000  0.000000000000000  0.000000000000000
  0.000920523273809  0.707106781186547  0.707106781186547  0.000000000000000
  0.000913315978644  0.577350269189626  0.577350269189626  0.577350269189626
  0.000369042189802  0.037126364496571  0.037126364496571  0.998620681799919
  0.000560399092868  0.091400604122622  0.091400604122622  0.991610739722014
  0.000686529762928  0.153107785246991  0.153107785246991  0.976276606394685
  0.000772033855115  0.218092889166061  0.218092889166061  0.951247067480579
  0.000830154595889  0.283987453220018  0.283987453220018  0.915806886208668
  0.000868669255018  0.349117760096376  0.349117760096376  0.869616915181954
  0.000892707628585  0.412143146144431  0.412143146144431  0.812573722299916
  0.000906082023857  0.471899362714913  0.471899362714913  0.744729469632107
  0.000911977725494  0.527314545284234  0.527314545284234  0.666242253736104
  0.000912872013860  0.620947533244402  0.620947533244402  0.478380938076952
  0.000913071493569  0.656972271185729  0.656972271185729  0.369830866459426
  0.000915287378455  0.684178830907014  0.684178830907014  0.252583955700718
  0.000918743627432  0.701260433012363  0.701260433012363  0.128326186659723
  0.000517697731297  0.107238221547817  0.000000000000000  0.994233354821322
  0.000733114368210  0.258206895949697  0.000000000000000  0.966089643296119
  0.000846323283638  0.417275295530672  0.000000000000000  0.908780131681911
  0.000903112269425  0.570036691179250  0.000000000000000  0.821619237061433
  0.000648577845316  0.982798601826395  0.177177402261533  0.052106394770113
  0.000743503091098  0.962424923032623  0.247571646342629  0.111564095715648
  0.000799852789184  0.940200799412881  0.335461628906649  0.059058888532354
  0.000810173149747  0.932082204014320  0.317361524661198  0.174655167757863
  0.000848338957459  0.904367419939330  0.409026842708536  0.121723505109599
  0.000855629925731  0.891240756007475  0.385429115066922  0.239027847938172
  0.000880320867974  0.867643562846271  0.493222118485128  0.062662506241542
  0.000881104818243  0.858197998604162  0.478532067592243  0.185750519454734
  0.000885028234127  0.839675362404986  0.450742259315706  0.302946697352898
  0.000902134229904  0.816528856402219  0.563212302076210  0.126777480068428
  0.000901009167711  0.801546937078353  0.543430356969390  0.249411216236224
  0.000902269293843  0.777356306907035  0.512351848641987  0.364983226059765
  0.000915801617469  0.766162121390039  0.639427963474910  0.064245492242208
  0.000913157800319  0.755358414353351  0.626980550902439  0.190601822277923
  0.000910781357948  0.734430575755950  0.603116169309631  0.311227594714961
  0.000910576025897  0.704383718402177  0.569370249846844  0.423864478152234
   total no. of   reducible points:1202; test:  1.00000000
  0.000077771607433  1.000000000000000  0.000000000000000  0.000000000000000
  0.000755764641300  0.577350269189626  0.577350269189626  0.577350269189626
  0.000284163380609  0.032292906634139  0.032292906634139  0.998956623864238
  0.000437441912705  0.080367332714622  0.080367332714622  0.993520097262594
  0.000541717474087  0.135428996053165  0.135428996053165  0.981487633165117
  0.000614800089136  0.193896386111443  0.193896386111443  0.961669580940275
  0.000666439448580  0.253734371501127  0.253734371501127  0.933401166400522
  0.000702503935692  0.313525143475257  0.313525143475257  0.896328047546008
  0.000726851178925  0.372155833937534  0.372155833937534  0.850294108254619
  0.000742263753421  0.428680957519570  0.428680957519570  0.795276853253136
  0.000750954503584  0.482251012828299  0.482251012828299  0.731346649169981
  0.000754853505772  0.532067933356626  0.532067933356626  0.658640591360127
  0.000755408896977  0.617299819539427  0.617299819539427  0.487731345715221
  0.000755314717444  0.651067984912748  0.651067984912748  0.390155043595885
  0.000756476765329  0.677731525168736  0.677731525168736  0.285236672931301
  0.000758799180852  0.696310941064874  0.696310941064874  0.174075117999957
  0.000760826183203  0.705893500983175  0.705893500983175  0.058555363028785
  0.000402168044787  0.995554619409186  0.000000000000000  0.094185985013862
  0.000580487179395  0.973411590179421  0.000000000000000  0.229063039585986
  0.000679215195595  0.927569373238863  0.000000000000000  0.373650983980055
  0.000733674121129  0.856802242279510  0.000000000000000  0.515645147000147
  0.000758186630099  0.762349555371937  0.000000000000000  0.647165477620840
  0.000753825785980  0.570752290889222  0.438702803988950  0.694104943230444
  0.000748351724705  0.519646338840308  0.385890841476262  0.762270254565011
  0.000737176366111  0.464633753121535  0.330193737234385  0.821637128756598
  0.000718344889576  0.406390169755769  0.272542357356378  0.872105322408083
  0.000689581552982  0.345632946664309  0.213951023749525  0.913653558859526
  0.000648010580179  0.283139512105033  0.155592230978665  0.946373644151191
  0.000589755889659  0.219768202292533  0.098928789796861  0.970523071240677
  0.000509570884925  0.156469609865035  0.045986429106755  0.986611630545015
  0.000753690642891  0.602735667372129  0.337662514017343  0.722975616397235
  0.000747250596558  0.549603232025510  0.282230130972799  0.786309379645309
  0.000734301713228  0.492170775523457  0.224863234259254  0.840954489612314
  0.000713087158218  0.430942299859848  0.166622472345648  0.886862833757808
  0.000681702203211  0.366410818231367  0.108696490182217  0.924082347686118
  0.000638094114560  0.299018905775844  0.052519897841201  0.952800794667682
  0.000755038137792  0.626872401314500  0.229752365755002  0.744476220506856
  0.000747864664014  0.570732414483461  0.172308060709380  0.802853936449496
  0.000733591872060  0.509636090196037  0.114023846539051  0.852801042441985
  0.000711012052766  0.443872993831246  0.056115220958825  0.894330949550573
  0.000757136397869  0.641997847108239  0.116417442314087  0.757816431224233
  0.000748990832908  0.581721806180261  0.057975895314452  0.811319009870262
   total no. of   reducible points:1454; test:  1.00000000
  qrot: 

              1        2        3      
    1    1.0000   0.0000   0.0000
    2    0.0000   1.0000   0.0000
    3    0.0000   0.0000   1.0000
  me                     0   done genpts
  me                     1   done genpts
  me                     2   done genpts
  me                     3   done genpts
  me                     4   done genpts
  me                     5   done genpts
  me                     6   done genpts
  me                     7   done genpts
  me                     0   done uprt
  me                     1   done uprt
  me                     2   done uprt
  me                     3   done uprt
  me                     4   done uprt
  me                     5   done uprt
  me                     6   done uprt
  me                     7   done uprt
  me                     0  done mem
  me                     1  done mem
  me                     2  done mem
  me                     3  done mem
  me                     4  done mem
  me                     5  done mem
  me                     6  done mem
  me                     7  done mem
  dftinpanae: itol2e                     8  iaoacc                    14  tol_rho    1.0000000000000000E-010

            General Information
            -------------------
          SCF calculation type: DFT
          Wavefunction type:  spin polarized.
          No. of atoms     :     1
          No. of electrons :    15
           Alpha electrons :     9
            Beta electrons :     6
          Charge           :     0
          Spin multiplicity:     4
          Use of symmetry is: off; symmetry adaption is: off
          Maximum number of iterations:  50
          AO basis - number of functions:    59
                     number of shells:    16
          Convergence on energy requested:  1.00D-06
          Convergence on density requested:  1.00D-05
          Convergence on gradient requested:  5.00D-04

              XC Information
              --------------
                     Hartree-Fock (Exact) Exchange  1.000          
                     LC-wPBE(h)Exchange Functional  1.000          
            Perdew 1991 LDA Correlation Functional  1.000 local    
           PerdewBurkeErnz. Correlation Functional  1.000 non-local

           Range-Separation Parameters        
           ---------------------------
           Alpha           :  0.00
           Beta            :  1.00
           Gamma           :  0.33
           Short-Range HF  :     F

             Grid Information
             ----------------
          Grid used for XC integration:  xfine     
          Radial quadrature: Mura-Knowles        
          Angular quadrature: Lebedev. 
          Tag              B.-S. Rad. Rad. Pts. Rad. Cut. Ang. Pts.
          ---              ---------- --------- --------- ---------
          P                   1.00      125          11.0      1454
          Grid pruning is: on 
          Number of quadrature shells:   125
          Spatial weights used:  Erf1

          Convergence Information
          -----------------------
          Convergence aids based upon iterative change in 
          total energy or number of iterations. 
          Levelshifting, if invoked, occurs when the 
          HOMO/LUMO gap drops below (HL_TOL):  1.00D-02
          DIIS, if invoked, will attempt to extrapolate 
          using up to (NFOCK): 10 stored Fock matrices.

                    Damping( 0%)  Levelshifting(0.5)       DIIS
                  --------------- ------------------- ---------------
          dE  on:    start            ASAP                start   
          dE off:    2 iters         50 iters            50 iters 


      Screening Tolerance Information
      -------------------------------
          Density screening/tol_rho:  1.00D-10
          AO Gaussian exp screening on grid/accAOfunc:  14
          CD Gaussian exp screening on grid/accCDfunc:  20
          XC Gaussian exp screening on grid/accXCfunc:  20
          Schwarz screening/accCoul:  1.00D-08



                         Geometry "geometry" -> "geometry"
                         ---------------------------------

 Output coordinates in angstroms (scale by  1.889725989 to convert to a.u.)

  No.       Tag          Charge          X              Y              Z
 ---- ---------------- ---------- -------------- -------------- --------------
    1 P                   15.0000     0.00000000     0.00000000     0.00000000

      Atomic Mass 
      ----------- 

      P                 30.973760


 Effective nuclear repulsion energy (a.u.)       0.0000000000

            Nuclear Dipole moment (a.u.) 
            ----------------------------
        X                 Y               Z
 ---------------- ---------------- ----------------
     0.0000000000     0.0000000000     0.0000000000

  
  CAM type calculations without CDFIT are
  only available with the direct option.
  Forcing Direct SCF
  


     <<<<<<    Before call to DFT_SCF.    >>>>>>
     <<<<<< date:  Apr 15  time: 00:13:46 >>>>>>


 Setting tolerance for linear dependence to 1.00D-05




 Setting tolerance for linear dependence to 1.00D-05

 Setting tolerance for linear dependence to 1.00D-05

 Setting tolerance for linear dependence to 1.00D-05

 Setting tolerance for linear dependence to 1.00D-05
 Setting tolerance for linear dependence to 1.00D-05
 Setting tolerance for linear dependence to 1.00D-05
 Setting tolerance for linear dependence to 1.00D-05
  lindep tolerance =    1.0000000000000001E-005
  lindep tolerance =    1.0000000000000001E-005
  lindep tolerance =    1.0000000000000001E-005
  lindep tolerance =    1.0000000000000001E-005
  lindep tolerance =    1.0000000000000001E-005
  lindep tolerance =    1.0000000000000001E-005
  lindep tolerance =    1.0000000000000001E-005
  lindep tolerance =    1.0000000000000001E-005


     <<<<<<    Before 3c-2e initialize.   >>>>>>
     <<<<<< date:  Apr 15  time: 00:13:46 >>>>>>


 Setting fock-build task_bf   :      -1
                    maxquartet:   10000
                    maxeri    :  129600
                    maxscr    :       0
                    intacc    : 0.0D+00
                    denscreen : T
                    dentol    : 1.0D-06


      Superposition of Atomic Density Guess
      -------------------------------------

 Sum of atomic energies:        -340.65781245

      Non-variational initial energy
      ------------------------------

 Total energy =    -340.369472
 1-e energy   =    -471.310939
 2-e energy   =     130.941466
 HOMO         =      -0.168478
 LUMO         =      -0.168478


 Setting fock-build task_bf   :      -1
                    maxquartet:   10000
                    maxeri    :  129600
                    maxscr    :       0
                    intacc    : 0.0D+00
                    denscreen : T
                    dentol    : 1.0D-06


 Wrote molecular orbitals to ./p.movecs

  WARNING: movecs_in_org=atomic not equal to movecs_in=./p.movecs
   Time after variat. SCF:      1.1

 Setting fock-build task_bf   :      -1
                    maxquartet:   10000
                    maxeri    :  129600
                    maxscr    :       0
                    intacc    : 0.0D+00
                    denscreen : T
                    dentol    : 1.0D-06

   Time prior to 1st pass:      1.1


     <<<<<<      Before SCF iter loop.    >>>>>>
     <<<<<< date:  Apr 15  time: 00:13:47 >>>>>>

           DAMPING=T LEVELSHIFTING=F DIISING=T
          itol2e= 8 iAOacc=12 iXCacc=20


     <<<<<<            calling 1-e int    >>>>>>
     <<<<<< date:  Apr 15  time: 00:13:47 >>>>>>

    Kinetic Matrix Time:          0.0s

           Kinetic energy =    340.161045601632

    Potential Matrix Time:          0.0s


     <<<<<<    Before call to GETVXC.     >>>>>>
     <<<<<< date:  Apr 15  time: 00:13:47 >>>>>>



     <<<<<<    Before call to fock_2e.    >>>>>>
     <<<<<< date:  Apr 15  time: 00:13:47 >>>>>>



     <<<<<<     After call to fock_2e.    >>>>>>
     <<<<<< date:  Apr 15  time: 00:13:47 >>>>>>

    Fock_2e Build Time:          0.2s
  *** grid_quadv0:                    calc_type:                    1
  *** grid_quadv0:                    grid_written: F
  *** grid_quadv0:                    grad: T
  *** grid_quadv0:                    kske: F
  *** grid_quadv0:                    kslap: F
  *** grid_quadv0:                    do_scf: T
  *** grid_quadv0:                    calc_type:                    1
  *** grid_quadv0:                    calc_type:                    1
  *** grid_quadv0:                    grid_written: F
  *** grid_quadv0:                    grad: T
  *** grid_quadv0:                    kske: F
  *** grid_quadv0:                    fde_option:                    0
  *** grid_quadv0:                    n_per_rec:                 3070
  *** grid_quadv0:                    grid_written: F
  *** grid_quadv0:                    grad: T
  *** grid_quadv0:                    kske: F
  *** grid_quadv0:                    kslap: F
  *** grid_quadv0:                    do_scf: T
  *** grid_quadv0:                    fde_option:                    0
  *** grid_quadv0:                    n_per_rec:                 3070
  *** grid_quadv0:                    calc_type:                    1
  *** grid_quadv0:                    grid_written: F
  *** grid_quadv0:                    grad: T
  *** grid_quadv0:                    kske: F
  *** grid_quadv0:                    kslap: F
  *** grid_quadv0:                    do_scf: T
  *** grid_quadv0:                    fde_option:                    0
  *** grid_quadv0:                    n_per_rec:                 3070
  *** grid_quadv0:                    kslap: F
  *** grid_quadv0:                    do_scf: T
  *** grid_quadv0:                    fde_option:                    0
  *** grid_quadv0:                    n_per_rec:                 3070
  *** grid_quadv0:                    calc_type:                    1
  *** grid_quadv0:                    grid_written: F
  *** grid_quadv0:                    grad: T
  *** grid_quadv0:                    kske: F
  *** grid_quadv0:                    kslap: F
  *** grid_quadv0:                    do_scf: T
  *** grid_quadv0:                    fde_option:                    0
  *** grid_quadv0:                    n_per_rec:                 3070
  *** grid_quadv0:                    calc_type:                    1
  *** grid_quadv0:                    grid_written: F
  *** grid_quadv0:                    grad: T
  *** grid_quadv0:                    kske: F
  *** grid_quadv0:                    kslap: F
  *** grid_quadv0:                    do_scf: T
  *** grid_quadv0:                    fde_option:                    0
  *** grid_quadv0:                    n_per_rec:                 3070
  *** grid_quadv0:                    calc_type:                    1
  *** grid_quadv0:                    grid_written: F
  *** grid_quadv0:                    grad: T
  *** grid_quadv0:                    kske: F
  *** grid_quadv0:                    kslap: F
  *** grid_quadv0:                    do_scf: T
  *** grid_quadv0:                    fde_option:                    0
  *** grid_quadv0:                    n_per_rec:                 3070
  *** grid_quadv0:                    calc_type:                    1
  *** grid_quadv0:                    grid_written: F
  *** grid_quadv0:                    grad: T
  *** grid_quadv0:                    kske: F
  *** grid_quadv0:                    kslap: F
  *** grid_quadv0:                    do_scf: T
  *** grid_quadv0:                    fde_option:                    0
  *** grid_quadv0:                    n_per_rec:                 3070
   0: nuse=   8 avail= 12500000Mb on .
   1: nuse=   8 avail= 12500000Mb on .
   2: nuse=   8 avail= 12500000Mb on .
   3: nuse=   8 avail= 12500000Mb on .
   5: nuse=   8 avail= 12500000Mb on .
   6: nuse=   8 avail= 12500000Mb on .
   7: nuse=   8 avail= 12500000Mb on .
   4: nuse=   8 avail= 12500000Mb on .
 l_cube input   11.00

  atom type   l_cube   no. cubes   segmts   rad   sub
 ----------- -------- ----------- -------- ----- -----
        1     13.33        34         3      20     8

 Grid_pts file          = ./p.gridpts.0
 Record size in doubles =  12289        No. of grid_pts per rec  =   3070
 Max. records in memory =     10        Max. recs in file   = 126656358

 me   0 NQTOTC NQ/cube   17596     926
 me   1 NQTOTC NQ/cube    9548    4774
 me   2 NQTOTC NQ/cube   10116   10116
 me   3 NQTOTC NQ/cube    9548    4774
 me   4 NQTOTC NQ/cube    8936    2978
 me   5 NQTOTC NQ/cube    9327    9327
 me   6 NQTOTC NQ/cube    8527    2842
 me   7 NQTOTC NQ/cube   10304    3434

 XC quadr. integrated density :      15.000000 npts:    83749 nctrs:        1

    Fock_xc Build Time:          0.1s


     <<<<<<    Before call to GETVCOUL.   >>>>>>
     <<<<<< date:  Apr 15  time: 00:13:47 >>>>>>



     <<<<<<    End of parallel region.    >>>>>>
     <<<<<< date:  Apr 15  time: 00:13:47 >>>>>>

    Total Fock Matrix Build Time:          0.3s
 Etnew, Ecore, Ecoul, Exc(1), Exc(2), Totsic:   -341.10894023022513       -470.19651183653423        152.03117435467732       -22.943602748368228        0.0000000000000000        0.0000000000000000     
  delta =   -341.10894023022513     
  delta =   -341.10894023022513     


         Total DFT energy =     -341.108940230225
      One electron energy =     -470.196511836534
           Coulomb energy =      152.031174354677
  delta =   -341.10894023022513     
  delta =   -341.10894023022513     
  delta =   -341.10894023022513     
  delta =   -341.10894023022513     
  delta =   -341.10894023022513     
  delta =   -341.10894023022513     
    Exchange-Corr. energy =      -22.943602748368
 Nuclear repulsion energy =        0.000000000000

 Numeric. integr. density =       14.999999999333

     Total iterative time =      2.2s




     <<<<<<        calling diis driver    >>>>>>
     <<<<<< date:  Apr 15  time: 00:13:47 >>>>>>

 nhist                     1  pulay matrix 
   0.0000E+00
  -1.0000E+00   1.3177E-01


     <<<<<<         called diis driver    >>>>>>
     <<<<<< date:  Apr 15  time: 00:13:47 >>>>>>


 global array: fock transf[1:59,1:59],  handle: -940 

            1           2           3           4           5           6  
       ----------- ----------- ----------- ----------- ----------- -----------
   1       5.96987     0.00000     0.00000     0.00000    -0.00000     0.67660
   2       0.00000     5.96987     0.00000     0.00000    -0.00000    -0.19533
   3       0.00000     0.00000     5.96987     0.00000    -0.00000     0.21963
   4       0.00000     0.00000     0.00000     2.63101     1.27037    -0.00000
   5      -0.00000    -0.00000    -0.00000     1.27037     3.95697     0.00000
   6       0.67660    -0.19533     0.21963    -0.00000     0.00000     0.77658
   7      -0.29307    -0.40620     0.54157     0.00000    -0.00000    -0.00000
   8      -0.02246    -0.58398    -0.45017     0.00000    -0.00000    -0.00000
   9      -0.00000    -0.00000    -0.00000    -0.28370    -0.79643     0.00000
  10      -0.00000    -0.00000     0.00000     0.00000     0.00000     0.00000
  11       0.00000     0.00000     0.00000    -0.76497    -0.51443    -0.00000
  12       0.00000    -0.00000    -0.00000     0.00000    -0.00000    -0.00000
  13       0.00000    -0.00000    -0.00000     0.00000     0.00000     0.00000
  14      -0.00000    -0.00000    -0.00000    -0.00000     0.00000     0.00000
  15       0.00000     0.00000    -0.00000     0.00000    -0.00000    -0.00000
  16      -0.00000     0.00000    -0.00000     0.00000     0.00000     0.00000
  17       0.00000    -0.00000     0.00000    -0.00000    -0.00000    -0.00000
  18      -0.03862    -0.03645     0.06272     0.00000    -0.00000     0.01811
  19      -0.06428     0.05011    -0.01046    -0.00000     0.00000     0.19226
  20       0.03360     0.05398     0.05206    -0.00000     0.00000    -0.08173
  21       0.00000     0.00000     0.00000    -0.00000    -0.00000    -0.00000
  22       0.00000     0.00000     0.00000     0.00000    -0.00000    -0.00000
  23       0.00000     0.00000     0.00000     0.00000    -0.00000    -0.00000
  24       0.03443     0.04126     0.03681    -0.00000     0.00000    -0.22644
  25      -0.03988    -0.01151     0.05020    -0.00000     0.00000     0.13313
  26      -0.03830     0.04908    -0.01918    -0.00000     0.00000     0.38556
  27       0.00000     0.00000    -0.00000    -0.00000    -0.00000    -0.00000
  28       0.00000    -0.00000    -0.00000    -0.00000     0.00000    -0.00000
  29       0.00000     0.00000    -0.00000     0.00000     0.00000    -0.00000
  30      -0.00000    -0.00000     0.00000    -0.00000     0.00000     0.00000
  31      -0.00000     0.00000    -0.00000    -0.00000    -0.00000     0.00000
  32      -0.00000     0.00000    -0.00000    -0.00000    -0.00000     0.00000
  33      -0.01901    -0.01501     0.02793     0.00000    -0.00000    -0.01302
  34      -0.02837     0.02259    -0.00717     0.00000    -0.00000    -0.08641
  35      -0.01416    -0.02512    -0.02313    -0.00000     0.00000    -0.03347
  36      -0.00000    -0.00000    -0.00000     0.03369     0.26351     0.00000
  37       0.01900     0.01538    -0.01077     0.00000    -0.00000     0.00188
  38      -0.01538     0.00396    -0.02148    -0.00000     0.00000    -0.00399
  39      -0.01077     0.02148     0.01167     0.00000    -0.00000    -0.00224
  40      -0.00000    -0.00000    -0.00000    -0.00000     0.00000     0.00000
  41      -0.00000    -0.00000    -0.00000    -0.00000     0.00000     0.00000
  42      -0.00000    -0.00000     0.00000     0.00000     0.00000     0.00000
  43       0.00000     0.00000    -0.00000    -0.00000     0.00000    -0.00000
  44       0.00000    -0.00000     0.00000    -0.00000    -0.00000    -0.00000
  45       0.00000     0.00000     0.00000    -0.02636     0.13212    -0.00000
  46       0.03865     0.00225    -0.01785    -0.00000     0.00000    -0.05111
  47       0.00187     0.04157     0.00928     0.00000    -0.00000     0.01129
  48       0.01790    -0.00920     0.03758     0.00000    -0.00000    -0.05198
  49      -0.00000    -0.00000    -0.00000    -0.00000     0.00000     0.00000
  50      -0.00000    -0.00000    -0.00000    -0.00000     0.00000     0.00000
  51      -0.00000    -0.00000    -0.00000    -0.07129     0.06775     0.00000
  52       0.06485    -0.09199    -0.00747     0.00000    -0.00000     0.02686
  53      -0.02456    -0.02600     0.10698    -0.00000     0.00000     0.00534
  54       0.08896     0.05988     0.03497    -0.00000     0.00000     0.02507
  55      -0.00000    -0.00000    -0.00000    -0.05360    -0.18926     0.00000
  56      -0.00010     0.01542     0.00426     0.00000    -0.00000    -0.00128
  57      -0.00751     0.00372    -0.01363    -0.00000     0.00000    -0.00525
  58       0.01413     0.00208    -0.00722    -0.00000     0.00000     0.00451
  59      -0.00000    -0.00000    -0.00000     0.03492     0.08198     0.00000

            7           8           9          10          11          12  
       ----------- ----------- ----------- ----------- ----------- -----------
   1      -0.29307    -0.02246    -0.00000    -0.00000     0.00000     0.00000
   2      -0.40620    -0.58398    -0.00000    -0.00000     0.00000    -0.00000
   3       0.54157    -0.45017    -0.00000     0.00000     0.00000    -0.00000
   4       0.00000     0.00000    -0.28370     0.00000    -0.76497     0.00000
   5      -0.00000    -0.00000    -0.79643     0.00000    -0.51443    -0.00000
   6      -0.00000    -0.00000     0.00000     0.00000    -0.00000    -0.00000
   7       0.77658     0.00000    -0.00000     0.00000     0.00000     0.00000
   8       0.00000     0.77658    -0.00000     0.00000     0.00000    -0.00000
   9      -0.00000    -0.00000     0.63015     0.00000     0.83075    -0.00000
  10       0.00000     0.00000     0.00000     1.36685     0.00000     0.00000
  11       0.00000     0.00000     0.83075     0.00000     3.70841    -0.00000
  12       0.00000    -0.00000    -0.00000     0.00000    -0.00000     1.36685
  13       0.00000     0.00000     0.00000    -0.00000    -0.00000    -0.00000
  14       0.00000     0.00000    -0.00000    -0.00000    -0.00000     0.00000
  15       0.00000    -0.00000     0.00000     0.00000     0.00000    -0.00000
  16       0.00000    -0.00000     0.00000    -0.00000     0.00000    -0.00000
  17      -0.00000    -0.00000    -0.00000     0.00000     0.00000     0.00000
  18      -0.20785     0.02103    -0.00000     0.00000     0.00000     0.00000
  19       0.02484     0.07995     0.00000     0.00000    -0.00000    -0.00000
  20       0.01237     0.19271     0.00000     0.00000    -0.00000     0.00000
  21      -0.00000    -0.00000    -0.00000    -0.46441    -0.00000     0.00000
  22       0.00000     0.00000    -0.00000     0.00000     0.00000     0.00000
  23       0.00000     0.00000    -0.00000     0.00000     0.00000     0.00000
  24       0.06712     0.40234     0.00000    -0.00000    -0.00000     0.00000
  25      -0.42282     0.14547     0.00000    -0.00000    -0.00000    -0.00000
  26       0.18542     0.18607     0.00000    -0.00000    -0.00000    -0.00000
  27       0.00000    -0.00000     0.00000    -0.00000    -0.00000    -0.20257
  28       0.00000     0.00000    -0.00000    -0.00000    -0.00000    -0.39371
  29       0.00000     0.00000     0.00000     0.00000    -0.00000    -0.14012
  30      -0.00000     0.00000    -0.00000    -0.00000     0.00000     0.00000
  31       0.00000    -0.00000     0.00000    -0.00000     0.00000    -0.00000
  32       0.00000     0.00000     0.00000     0.00000    -0.00000     0.00000
  33       0.09193    -0.01160    -0.00000     0.00000     0.00000    -0.00000
  34      -0.01628    -0.03201    -0.00000     0.00000     0.00000    -0.00000
  35       0.00626     0.08716     0.00000     0.00000    -0.00000    -0.00000
  36      -0.00000    -0.00000    -0.27954    -0.00000     0.06814    -0.00000
  37      -0.00443    -0.00114    -0.00000    -0.00000     0.00000     0.00000
  38      -0.00219     0.00193     0.00000    -0.00000    -0.00000     0.00000
  39       0.00019    -0.00440    -0.00000    -0.00000     0.00000    -0.00000
  40      -0.00000    -0.00000     0.00000     0.00000    -0.00000     0.00000
  41      -0.00000    -0.00000     0.00000     0.00000    -0.00000     0.00000
  42      -0.00000     0.00000    -0.00000     0.00000    -0.00000    -0.00000
  43       0.00000    -0.00000    -0.00000     0.00000    -0.00000     0.00000
  44      -0.00000    -0.00000     0.00000     0.00000    -0.00000    -0.00000
  45       0.00000     0.00000    -0.01436     0.00000     1.52058     0.00000
  46       0.05139    -0.01374     0.00000    -0.00000    -0.00000     0.00000
  47       0.02910     0.06684    -0.00000     0.00000     0.00000     0.00000
  48      -0.04421     0.02803    -0.00000    -0.00000     0.00000    -0.00000
  49      -0.00000    -0.00000     0.00000    -0.00000    -0.00000     0.00000
  50      -0.00000    -0.00000     0.00000    -0.00000    -0.00000    -0.00000
  51      -0.00000    -0.00000    -0.02769     0.00000     0.76282    -0.00000
  52       0.00639     0.02482    -0.00000    -0.00000     0.00000     0.00000
  53       0.03377    -0.01447     0.00000     0.00000    -0.00000     0.00000
  54      -0.01403    -0.02352     0.00000     0.00000    -0.00000     0.00000
  55      -0.00000    -0.00000     0.06324    -0.00000    -0.28831     0.00000
  56      -0.00234    -0.00651    -0.00000     0.00000     0.00000     0.00000
  57      -0.00399     0.00246     0.00000     0.00000    -0.00000     0.00000
  58      -0.00530     0.00102     0.00000    -0.00000    -0.00000     0.00000
  59      -0.00000    -0.00000    -0.04653    -0.00000     0.02188    -0.00000

           13          14          15          16          17          18  
       ----------- ----------- ----------- ----------- ----------- -----------
   1       0.00000    -0.00000     0.00000    -0.00000     0.00000    -0.03862
   2      -0.00000    -0.00000     0.00000     0.00000    -0.00000    -0.03645
   3      -0.00000    -0.00000    -0.00000    -0.00000     0.00000     0.06272
   4       0.00000    -0.00000     0.00000     0.00000    -0.00000     0.00000
   5       0.00000     0.00000    -0.00000     0.00000    -0.00000    -0.00000
   6       0.00000     0.00000    -0.00000     0.00000    -0.00000     0.01811
   7       0.00000     0.00000     0.00000     0.00000    -0.00000    -0.20785
   8       0.00000     0.00000    -0.00000    -0.00000    -0.00000     0.02103
   9       0.00000    -0.00000     0.00000     0.00000    -0.00000    -0.00000
  10      -0.00000    -0.00000     0.00000    -0.00000     0.00000     0.00000
  11      -0.00000    -0.00000     0.00000     0.00000     0.00000     0.00000
  12      -0.00000     0.00000    -0.00000    -0.00000     0.00000     0.00000
  13       1.36685    -0.00000    -0.00000    -0.00000     0.00000    -0.00000
  14      -0.00000     1.36685     0.00000    -0.00000    -0.00000     0.00000
  15      -0.00000     0.00000     1.08808     0.00000     0.00000     0.00000
  16      -0.00000    -0.00000     0.00000     1.08808    -0.00000     0.00000
  17       0.00000    -0.00000     0.00000    -0.00000     1.08808    -0.00000
  18      -0.00000     0.00000     0.00000     0.00000    -0.00000     1.38276
  19      -0.00000    -0.00000     0.00000    -0.00000     0.00000    -0.00000
  20       0.00000     0.00000    -0.00000     0.00000    -0.00000    -0.00000
  21      -0.00000     0.00000     0.00000    -0.00000    -0.00000    -0.00000
  22       0.00000     0.00000     0.00000     0.00000    -0.00000     0.00000
  23       0.00000     0.00000     0.00000     0.00000     0.00000    -0.00000
  24      -0.00000    -0.00000    -0.00000     0.00000    -0.00000    -0.01594
  25       0.00000    -0.00000     0.00000     0.00000     0.00000     0.15510
  26      -0.00000     0.00000     0.00000    -0.00000     0.00000    -0.04593
  27      -0.38246    -0.16844     0.00000     0.00000    -0.00000     0.00000
  28       0.11189     0.21943     0.00000    -0.00000    -0.00000    -0.00000
  29       0.23851    -0.37304     0.00000     0.00000     0.00000    -0.00000
  30       0.00000     0.00000     0.37382     0.25612     0.08737    -0.00000
  31       0.00000     0.00000    -0.19130     0.14473     0.39424     0.00000
  32      -0.00000     0.00000     0.19140    -0.35557     0.22341     0.00000
  33       0.00000    -0.00000    -0.00000    -0.00000     0.00000     0.45386
  34      -0.00000    -0.00000    -0.00000     0.00000    -0.00000    -0.02655
  35      -0.00000    -0.00000    -0.00000     0.00000    -0.00000     0.00172
  36      -0.00000     0.00000     0.00000    -0.00000    -0.00000    -0.00000
  37      -0.00000     0.00000     0.00000     0.00000     0.00000     0.03039
  38      -0.00000    -0.00000     0.00000     0.00000    -0.00000     0.01385
  39      -0.00000    -0.00000    -0.00000     0.00000    -0.00000    -0.00563
  40      -0.00000     0.00000     0.00000     0.00000    -0.00000    -0.00000
  41       0.00000    -0.00000     0.00000     0.00000    -0.00000    -0.00000
  42      -0.00000    -0.00000     0.00581    -0.02218    -0.02502    -0.00000
  43       0.00000     0.00000     0.03147     0.01219    -0.00350     0.00000
  44      -0.00000     0.00000     0.01127    -0.02260     0.02266    -0.00000
  45       0.00000    -0.00000    -0.00000     0.00000     0.00000     0.00000
  46      -0.00000     0.00000     0.00000     0.00000     0.00000    -0.07104
  47       0.00000    -0.00000     0.00000     0.00000    -0.00000    -0.02651
  48       0.00000     0.00000    -0.00000    -0.00000     0.00000     0.05277
  49      -0.00000     0.00000     0.00000     0.00000     0.00000    -0.00000
  50       0.00000     0.00000    -0.00000     0.00000     0.00000    -0.00000
  51      -0.00000     0.00000    -0.00000    -0.00000    -0.00000    -0.00000
  52      -0.00000     0.00000    -0.00000     0.00000    -0.00000     0.00931
  53       0.00000    -0.00000     0.00000     0.00000    -0.00000     0.21064
  54      -0.00000    -0.00000    -0.00000     0.00000    -0.00000    -0.08383
  55       0.00000     0.00000    -0.00000     0.00000     0.00000    -0.00000
  56       0.00000    -0.00000     0.00000     0.00000    -0.00000    -0.00922
  57      -0.00000    -0.00000     0.00000     0.00000    -0.00000    -0.02218
  58      -0.00000     0.00000     0.00000     0.00000     0.00000    -0.03402
  59      -0.00000    -0.00000     0.00000    -0.00000    -0.00000    -0.00000

           19          20          21          22          23          24  
       ----------- ----------- ----------- ----------- ----------- -----------
   1      -0.06428     0.03360     0.00000     0.00000     0.00000     0.03443
   2       0.05011     0.05398     0.00000     0.00000     0.00000     0.04126
   3      -0.01046     0.05206     0.00000     0.00000     0.00000     0.03681
   4      -0.00000    -0.00000    -0.00000     0.00000     0.00000    -0.00000
   5       0.00000     0.00000    -0.00000    -0.00000    -0.00000     0.00000
   6       0.19226    -0.08173    -0.00000    -0.00000    -0.00000    -0.22644
   7       0.02484     0.01237    -0.00000     0.00000     0.00000     0.06712
   8       0.07995     0.19271    -0.00000     0.00000     0.00000     0.40234
   9       0.00000     0.00000    -0.00000    -0.00000    -0.00000     0.00000
  10       0.00000     0.00000    -0.46441     0.00000     0.00000    -0.00000
  11      -0.00000    -0.00000    -0.00000     0.00000     0.00000    -0.00000
  12      -0.00000     0.00000     0.00000     0.00000     0.00000     0.00000
  13      -0.00000     0.00000    -0.00000     0.00000     0.00000    -0.00000
  14      -0.00000     0.00000     0.00000     0.00000     0.00000    -0.00000
  15       0.00000    -0.00000     0.00000     0.00000     0.00000    -0.00000
  16      -0.00000     0.00000    -0.00000     0.00000     0.00000     0.00000
  17       0.00000    -0.00000    -0.00000    -0.00000     0.00000    -0.00000
  18      -0.00000    -0.00000    -0.00000     0.00000    -0.00000    -0.01594
  19       1.38276     0.00000     0.00000    -0.00000    -0.00000    -0.01612
  20       0.00000     1.38276     0.00000    -0.00000    -0.00000     0.16095
  21       0.00000     0.00000     0.84435    -0.00000     0.00000     0.00000
  22      -0.00000    -0.00000    -0.00000     1.08809     0.00000    -0.00000
  23      -0.00000    -0.00000     0.00000     0.00000     1.08809    -0.00000
  24      -0.01612     0.16095     0.00000    -0.00000    -0.00000     1.61612
  25       0.04440     0.01980     0.00000    -0.00000    -0.00000     0.00000
  26       0.15553     0.01103     0.00000    -0.00000    -0.00000     0.00000
  27      -0.00000    -0.00000    -0.00000     0.00000    -0.00000    -0.00000
  28      -0.00000     0.00000    -0.00000    -0.00000     0.00000     0.00000
  29      -0.00000     0.00000     0.00000    -0.00000     0.00000     0.00000
  30      -0.00000     0.00000    -0.00000    -0.00000    -0.00000     0.00000
  31      -0.00000     0.00000    -0.00000     0.00000     0.00000     0.00000
  32      -0.00000     0.00000     0.00000    -0.00000    -0.00000     0.00000
  33       0.02660     0.00078     0.00000     0.00000     0.00000     0.00629
  34       0.45358    -0.01603     0.00000     0.00000     0.00000     0.00790
  35      -0.01596    -0.45435     0.00000    -0.00000    -0.00000     0.06081
  36       0.00000     0.00000    -0.00000    -0.00000    -0.00000     0.00000
  37       0.00522    -0.01401    -0.00000     0.00000     0.00000     0.22941
  38      -0.02178     0.02194     0.00000    -0.00000    -0.00000    -0.29750
  39      -0.02541    -0.02168     0.00000     0.00000     0.00000     0.24295
  40       0.00000     0.00000    -0.00000     0.21949     0.40595     0.00000
  41       0.00000     0.00000    -0.00000     0.40595    -0.21949     0.00000
  42      -0.00000     0.00000    -0.00000    -0.00000    -0.00000     0.00000
  43       0.00000    -0.00000    -0.00000    -0.00000    -0.00000    -0.00000
  44       0.00000    -0.00000     0.00000    -0.00000    -0.00000    -0.00000
  45      -0.00000    -0.00000     0.00000     0.00000     0.00000    -0.00000
  46      -0.05762     0.01293    -0.00000    -0.00000    -0.00000     0.15464
  47       0.04919     0.07356     0.00000     0.00000     0.00000     0.42809
  48      -0.05286     0.05436    -0.00000     0.00000     0.00000     0.32702
  49       0.00000     0.00000     0.00000    -0.01063     0.03223     0.00000
  50       0.00000     0.00000     0.00000    -0.03223    -0.01063     0.00000
  51       0.00000     0.00000    -0.00000    -0.00000    -0.00000     0.00000
  52      -0.21298    -0.07771    -0.00000     0.00000     0.00000    -0.16058
  53      -0.02064     0.08178     0.00000    -0.00000    -0.00000     0.17653
  54      -0.07550     0.19687     0.00000    -0.00000    -0.00000     0.59612
  55       0.00000     0.00000    -0.00000    -0.00000    -0.00000     0.00000
  56       0.02327     0.03329     0.00000     0.00000     0.00000    -0.03233
  57       0.02571    -0.02412    -0.00000    -0.00000    -0.00000     0.02485
  58      -0.02307     0.00670    -0.00000    -0.00000    -0.00000    -0.01256
  59       0.00000     0.00000     0.00000    -0.00000    -0.00000     0.00000

           25          26          27          28          29          30  
       ----------- ----------- ----------- ----------- ----------- -----------
   1      -0.03988    -0.03830    -0.00000     0.00000     0.00000    -0.00000
   2      -0.01151     0.04908     0.00000    -0.00000     0.00000    -0.00000
   3       0.05020    -0.01918    -0.00000    -0.00000    -0.00000     0.00000
   4      -0.00000    -0.00000    -0.00000    -0.00000     0.00000    -0.00000
   5       0.00000     0.00000    -0.00000     0.00000     0.00000     0.00000
   6       0.13313     0.38556    -0.00000    -0.00000    -0.00000     0.00000
   7      -0.42282     0.18542     0.00000     0.00000     0.00000    -0.00000
   8       0.14547     0.18607    -0.00000     0.00000     0.00000     0.00000
   9       0.00000     0.00000     0.00000    -0.00000     0.00000    -0.00000
  10      -0.00000    -0.00000    -0.00000    -0.00000     0.00000    -0.00000
  11      -0.00000    -0.00000    -0.00000    -0.00000    -0.00000     0.00000
  12      -0.00000    -0.00000    -0.20257    -0.39371    -0.14012     0.00000
  13       0.00000    -0.00000    -0.38246     0.11189     0.23851     0.00000
  14      -0.00000     0.00000    -0.16844     0.21943    -0.37304     0.00000
  15       0.00000     0.00000     0.00000     0.00000     0.00000     0.37382
  16       0.00000    -0.00000     0.00000    -0.00000     0.00000     0.25612
  17       0.00000     0.00000    -0.00000    -0.00000     0.00000     0.08737
  18       0.15510    -0.04593     0.00000    -0.00000    -0.00000    -0.00000
  19       0.04440     0.15553    -0.00000    -0.00000    -0.00000    -0.00000
  20       0.01980     0.01103    -0.00000     0.00000     0.00000     0.00000
  21       0.00000     0.00000    -0.00000    -0.00000     0.00000    -0.00000
  22      -0.00000    -0.00000     0.00000    -0.00000    -0.00000    -0.00000
  23      -0.00000    -0.00000    -0.00000     0.00000     0.00000    -0.00000
  24       0.00000     0.00000    -0.00000     0.00000     0.00000     0.00000
  25       1.61612     0.00000    -0.00000    -0.00000    -0.00000    -0.00000
  26       0.00000     1.61612    -0.00000    -0.00000    -0.00000     0.00000
  27      -0.00000    -0.00000     0.84435     0.00000     0.00000    -0.00000
  28      -0.00000    -0.00000     0.00000     0.84435     0.00000    -0.00000
  29      -0.00000    -0.00000     0.00000     0.00000     0.84435    -0.00000
  30      -0.00000     0.00000    -0.00000    -0.00000    -0.00000     0.69407
  31       0.00000    -0.00000     0.00000     0.00000    -0.00000    -0.00000
  32      -0.00000    -0.00000    -0.00000     0.00000    -0.00000     0.00000
  33      -0.05972     0.01393    -0.00000    -0.00000    -0.00000     0.00000
  34      -0.01310    -0.05972     0.00000     0.00000     0.00000     0.00000
  35       0.00787     0.00632     0.00000     0.00000    -0.00000     0.00000
  36       0.00000     0.00000     0.00000     0.00000    -0.00000    -0.00000
  37      -0.37937     0.06005     0.00000     0.00000     0.00000    -0.00000
  38      -0.13125     0.30729    -0.00000    -0.00000    -0.00000    -0.00000
  39       0.19750     0.31957    -0.00000     0.00000    -0.00000     0.00000
  40       0.00000     0.00000     0.00000     0.00000     0.00000    -0.00000
  41       0.00000     0.00000     0.00000     0.00000     0.00000    -0.00000
  42      -0.00000    -0.00000     0.00000     0.00000    -0.00000    -0.06252
  43       0.00000    -0.00000     0.00000     0.00000     0.00000     0.16015
  44       0.00000     0.00000     0.00000     0.00000     0.00000     0.00445
  45      -0.00000    -0.00000    -0.00000    -0.00000     0.00000     0.00000
  46      -0.49720    -0.20736     0.00000     0.00000     0.00000    -0.00000
  47      -0.01755     0.36131    -0.00000     0.00000    -0.00000    -0.00000
  48       0.25808    -0.37493     0.00000     0.00000     0.00000     0.00000
  49       0.00000     0.00000     0.00000     0.00000     0.00000    -0.00000
  50       0.00000     0.00000    -0.00000     0.00000     0.00000     0.00000
  51       0.00000     0.00000    -0.00000    -0.00000    -0.00000    -0.00000
  52      -0.16630    -0.59905     0.00000     0.00000     0.00000     0.00000
  53       0.58105    -0.20862    -0.00000     0.00000    -0.00000    -0.00000
  54      -0.21686    -0.09959    -0.00000     0.00000     0.00000     0.00000
  55       0.00000     0.00000    -0.00000     0.00000     0.00000    -0.00000
  56      -0.00165    -0.02779     0.00000    -0.00000    -0.00000    -0.00000
  57       0.01750    -0.02994     0.00000     0.00000     0.00000    -0.00000
  58       0.03887     0.01230    -0.00000    -0.00000    -0.00000    -0.00000
  59       0.00000     0.00000     0.00000    -0.00000     0.00000    -0.00000

           31          32          33          34          35          36  
       ----------- ----------- ----------- ----------- ----------- -----------
[...]
  37       0.00000    -0.00000    -7.63763     0.00000     0.00000    -0.00000
  38       0.00000    -0.00000     0.00000     0.00000     0.00000     0.00000
  39       0.00000    -0.00000    -7.63763     0.00000     0.00000    -0.00000
  40       0.00000    -0.00000    -0.00000    -0.24418     0.32646    -0.00004
  41       0.22947     2.16421     0.00000     0.00009     0.00012     0.40768
  42      -0.13218    -0.91410     0.00000     0.32646     0.24418    -0.00014
  43       2.34913    -0.26284    -0.00000    -0.24418     0.32646    -0.00004
  44      -0.00000     0.00000    -0.00000     0.00000    -0.00000    -0.00000
  45      -2.34914     0.26284    -0.00000    -0.24418     0.32646    -0.00004
  46       0.00000     0.00001     0.00000     0.00009     0.00012     0.40768
  47       0.13219     0.91411     0.00000     0.32646     0.24418    -0.00014
  48      -0.22947    -2.16424     0.00000     0.00009     0.00012     0.40768
  49      -0.00000    -0.00000     0.00000     0.32646     0.24418    -0.00014
  50      -0.00000     0.00000    -0.00000     1.70134    -2.27466     0.00028
  51      -0.11663    -1.10004    -0.00000    -0.00062    -0.00082    -2.84053
  52       0.06719     0.46463     0.00000    -2.27466    -1.70134     0.00099
  53      -1.19404     0.13360    -0.00000     1.70134    -2.27466     0.00028
  54       0.00000    -0.00000     0.00000    -0.00000     0.00000     0.00000
  55       1.19404    -0.13360    -0.00000     1.70134    -2.27466     0.00028
  56      -0.00000    -0.00001    -0.00000    -0.00062    -0.00082    -2.84053
  57      -0.06719    -0.46463     0.00000    -2.27466    -1.70134     0.00099
  58       0.11664     1.10006    -0.00000    -0.00062    -0.00082    -2.84053
  59       0.00000     0.00000     0.00000    -2.27466    -1.70134     0.00099

           55          56          57          58          59  
       ----------- ----------- ----------- ----------- -----------
   1       1.32305     1.00479    -0.00000    -0.00000     0.00000
   2       9.26918    10.00275    -0.00000     0.00000     0.00000
   3      12.42556    18.52630    -0.00000     0.00000     0.00000
   4      -6.34912    -6.69230     0.00000    -0.00000    -0.00000
   5       3.16875    19.68412    -0.00000     0.00000     0.00000
   6      -3.24094     2.29223    -0.00000     0.00000     0.00000
   7       0.00000     0.00000     0.73170    17.77026    -4.65469
   8       0.00000    -0.00000    -0.35716     4.67127    17.77738
   9       0.00000     0.00000    18.36629    -0.61712     0.53115
  10       0.00000     0.00000     1.66264    40.37906   -10.57678
  11       0.00000    -0.00000    -0.81157    10.61444    40.39525
  12       0.00000     0.00000    41.73342    -1.40227     1.20692
  13      -0.00000    -0.00000    -0.52434   -12.73408     3.33553
  14      -0.00000     0.00000     0.25594    -3.34741   -12.73919
  15      -0.00000    -0.00000   -13.16120     0.44222    -0.38062
  16       0.00000     0.00000     0.43403    10.54084    -2.76104
  17      -0.00000    -0.00000    -0.21186     2.77087    10.54507
  18       0.00000     0.00000    10.89439    -0.36606     0.31506
  19      -0.00000    -0.00000    -0.02286    -0.55522     0.14543
  20       0.00000    -0.00000     0.01116    -0.14595    -0.55544
  21      -0.00000    -0.00000    -0.57384     0.01928    -0.01660
  22      -2.67067    -8.51405     0.00000    -0.00000    -0.00000
  23       0.00000    -0.00000    -0.00000    -0.00000     0.00000
  24       0.00000     0.00000    -0.00000    -0.00000     0.00000
  25      -2.67067    -8.51405     0.00000    -0.00000    -0.00000
  26       0.00000     0.00000    -0.00000     0.00000    -0.00000
  27      -2.67067    -8.51405     0.00000    -0.00000    -0.00000
  28      -2.38565    -7.44390     0.00000    -0.00000    -0.00000
  29      -0.00000     0.00000     0.00000     0.00000    -0.00000
  30      -0.00000    -0.00000     0.00000     0.00000    -0.00000
  31      -2.38565    -7.44390     0.00000    -0.00000    -0.00000
  32      -0.00000    -0.00000     0.00000    -0.00000     0.00000
  33      -2.38565    -7.44390     0.00000    -0.00000    -0.00000
  34       1.29957    -1.82939     0.00000    -0.00000    -0.00000
  35      -0.00000     0.00000     0.00000     0.00000    -0.00000
  36      -0.00000    -0.00000     0.00000     0.00000    -0.00000
  37       1.29957    -1.82939     0.00000    -0.00000    -0.00000
  38      -0.00000    -0.00000     0.00000    -0.00000     0.00000
  39       1.29957    -1.82939     0.00000    -0.00000    -0.00000
  40      -0.00000    -0.00000    -0.86525   -21.01360     5.50425
  41      -0.00000     0.00000     0.42235    -5.52384   -21.02202
  42      -0.00000    -0.00000   -21.71842     0.72975    -0.62809
  43      -0.00000    -0.00000    -0.86525   -21.01360     5.50425
  44      -0.00000    -0.00000     0.00000    -0.00000    -0.00000
  45      -0.00000    -0.00000    -0.86525   -21.01360     5.50425
  46      -0.00000     0.00000     0.42235    -5.52384   -21.02202
  47      -0.00000    -0.00000   -21.71842     0.72975    -0.62809
  48      -0.00000     0.00000     0.42235    -5.52384   -21.02202
  49      -0.00000    -0.00000   -21.71842     0.72975    -0.62809
  50      -0.00000    -0.00000    -0.32196    -7.81919     2.04814
  51       0.00000     0.00000     0.15716    -2.05543    -7.82233
  52      -0.00000    -0.00000    -8.08146     0.27154    -0.23371
  53      -0.00000    -0.00000    -0.32196    -7.81919     2.04814
  54       0.00000     0.00000    -0.00000     0.00000     0.00000
  55      -0.00000    -0.00000    -0.32196    -7.81919     2.04814
  56       0.00000     0.00000     0.15716    -2.05543    -7.82233
  57      -0.00000    -0.00000    -8.08146     0.27154    -0.23371
  58       0.00000     0.00000     0.15716    -2.05543    -7.82233
  59      -0.00000    -0.00000    -8.08146     0.27154    -0.23371
  int_init: cando_txs set to always be  F
                                NWChem TDDFT Module
                                -------------------


            General Information
            -------------------
           No. of orbitals :     118
            Alpha orbitals :      59
             Beta orbitals :      59
        Alpha frozen cores :       0
         Beta frozen cores :       0
     Alpha frozen virtuals :       0
      Beta frozen virtuals :       0
         Spin multiplicity :       4
    Number of AO functions :      59
        Use of symmetry is : off
      Symmetry adaption is : off
         Schwarz screening :  0.10D-07

              XC Information
              --------------
              Hartree-Fock (Exact) Exchange   1.00          
              LC-wPBE(h)Exchange Functional   1.00          
     Perdew 1991 LDA Correlation Functional   1.00 local    
    PerdewBurkeErnz. Correlation Functional   1.00 non-local
           Alpha           :  0.00
           Beta            :  1.00
           Gamma           :  0.33

             TDDFT Information
             -----------------
          Calculation type : TDDFT             
         Wavefunction type : Unrestricted
          No. of electrons :      15
           Alpha electrons :       9
            Beta electrons :       6
              No. of roots :       5
          Max subspacesize :    5000
            Max iterations :     100
               Target root :       1
           Target symmetry : none
      Symmetry restriction : off
                 Algorithm : Optimal
        Davidson threshold :  0.10D-03

            Memory Information
            ------------------
          Available GA space size is       52428793038 doubles
          Available MA space size is        4194415692 doubles
          Length of a trial vector is          450     318
          Algorithm : Incore multiple tensor contraction
          Estimated peak GA usage is          15952488 doubles
          Estimated peak MA usage is             18000 doubles

    5 smallest eigenvalue differences (eV) 
--------------------------------------------------------
  No. Spin  Occ  Vir  Irrep   E(Occ)    E(Vir)   E(Diff)
--------------------------------------------------------
    1    1    9   10 a        -0.366     0.051    11.335
    2    1    8   10 a        -0.366     0.051    11.335
    3    1    7   10 a        -0.366     0.051    11.335
    4    1    9   11 a        -0.366     0.072    11.921
    5    1    8   11 a        -0.366     0.072    11.921
--------------------------------------------------------

  Entering Davidson iterations
  Unrestricted

  Iter   NTrls   NConv    DeltaV     DeltaE      Time   
  ----  ------  ------  ---------  ---------  --------- 
    1      5       0     0.63E-01   0.10+100        2.8
    2     15       0     0.26E-01   0.93E-02        4.5
    3     25       0     0.31E-01   0.22E-02        4.7
    4     35       0     0.23E+00   0.88E-02        4.7
    5     45       0     0.10E-01   0.19E-01        4.8
    6     55       0     0.17E-02   0.46E-04        4.8
    7     65       5     0.95E-04   0.75E-06        4.7
  ----  ------  ------  ---------  ---------  --------- 
  Convergence criterion met

  Ground state a        -341.136241704645 a.u.
  <S2> =   3.7502

  ----------------------------------------------------------------------------
  Root   1         a              0.249628313 a.u.                6.7927 eV 
  <S2> =   3.7524
  ----------------------------------------------------------------------------
     Transition Moments    X -0.76360   Y -0.00287   Z  0.00001
     Transition Moments   XX -0.00000  XY  0.00000  XZ -0.00000
     Transition Moments   YY -0.00000  YZ -0.00000  ZZ -0.00000
     Dipole Oscillator Strength                    0.0970365910
     Electric Quadrupole                           0.0000000000
     Magnetic Dipole                               0.0000000000
     Total Oscillator Strength                     0.0970365910

     Occ.    9 alpha a   ---  Virt.   10 alpha a    0.94905 X
     Occ.    9 alpha a   ---  Virt.   19 alpha a   -0.22288 X
     Occ.    6 beta  a   ---  Virt.    7 beta  a    0.19388 X
     Occ.    6 beta  a   ---  Virt.   11 beta  a    0.05044 X
  ----------------------------------------------------------------------------
  Root   2         a              0.249628313 a.u.                6.7927 eV 
  <S2> =   3.7524
  ----------------------------------------------------------------------------
     Transition Moments    X -0.00287   Y  0.76360   Z -0.00000
     Transition Moments   XX -0.00000  XY  0.00000  XZ -0.00000
     Transition Moments   YY -0.00000  YZ  0.00000  ZZ -0.00000
     Dipole Oscillator Strength                    0.0970365910
     Electric Quadrupole                           0.0000000000
     Magnetic Dipole                               0.0000000000
     Total Oscillator Strength                     0.0970365910

     Occ.    8 alpha a   ---  Virt.   10 alpha a   -0.94911 X
     Occ.    8 alpha a   ---  Virt.   19 alpha a    0.22289 X
     Occ.    6 beta  a   ---  Virt.    9 beta  a   -0.19388 X
     Occ.    6 beta  a   ---  Virt.   13 beta  a   -0.05044 X
  ----------------------------------------------------------------------------
  Root   3         a              0.249628313 a.u.                6.7927 eV 
  <S2> =   3.7524
  ----------------------------------------------------------------------------
     Transition Moments    X  0.00001   Y  0.00000   Z  0.76358
     Transition Moments   XX -0.00000  XY  0.00000  XZ  0.00000
     Transition Moments   YY -0.00000  YZ  0.00000  ZZ  0.00000
     Dipole Oscillator Strength                    0.0970305134
     Electric Quadrupole                           0.0000000000
     Magnetic Dipole                               0.0000000000
     Total Oscillator Strength                     0.0970305134

     Occ.    7 alpha a   ---  Virt.   10 alpha a   -0.94906 X
     Occ.    7 alpha a   ---  Virt.   19 alpha a    0.22288 X
     Occ.    6 beta  a   ---  Virt.    8 beta  a   -0.19387 X
     Occ.    6 beta  a   ---  Virt.   12 beta  a   -0.05044 X
  ----------------------------------------------------------------------------
  Root   4         a              0.265324283 a.u.                7.2198 eV 
  <S2> =   3.7504
  ----------------------------------------------------------------------------
     Transition Moments    X -0.00002   Y -0.14211   Z  0.00000
     Transition Moments   XX  0.00000  XY  0.00000  XZ  0.00000
     Transition Moments   YY  0.00000  YZ  0.00000  ZZ  0.00000
     Dipole Oscillator Strength                    0.0035724341
     Electric Quadrupole                           0.0000000000
     Magnetic Dipole                               0.0000000000
     Total Oscillator Strength                     0.0035724341

     Occ.    7 alpha a   ---  Virt.   18 alpha a    0.24213 X
     Occ.    7 alpha a   ---  Virt.   25 alpha a    0.09023 X
     Occ.    8 alpha a   ---  Virt.   10 alpha a    0.21382 X
     Occ.    8 alpha a   ---  Virt.   14 alpha a   -0.21944 X
     Occ.    8 alpha a   ---  Virt.   15 alpha a   -0.17342 X
     Occ.    8 alpha a   ---  Virt.   23 alpha a   -0.08558 X
     Occ.    8 alpha a   ---  Virt.   24 alpha a   -0.05962 X
     Occ.    9 alpha a   ---  Virt.   16 alpha a    0.24218 X
     Occ.    9 alpha a   ---  Virt.   27 alpha a    0.09023 X
     Occ.    6 beta  a   ---  Virt.    9 beta  a   -0.83515 X
     Occ.    6 beta  a   ---  Virt.    9 beta  a   -0.05476 Y
     Occ.    6 beta  a   ---  Virt.   13 beta  a   -0.18646 X
     Occ.    6 beta  a   ---  Virt.   22 beta  a    0.07803 X
  ----------------------------------------------------------------------------
  Root   5         a              0.265324283 a.u.                7.2198 eV 
  <S2> =   3.7504
  ----------------------------------------------------------------------------
     Transition Moments    X  0.14211   Y -0.00002   Z -0.00000
     Transition Moments   XX -0.00000  XY -0.00000  XZ -0.00000
     Transition Moments   YY  0.00000  YZ -0.00000  ZZ  0.00000
     Dipole Oscillator Strength                    0.0035724341
     Electric Quadrupole                           0.0000000000
     Magnetic Dipole                               0.0000000000
     Total Oscillator Strength                     0.0035724341

     Occ.    7 alpha a   ---  Virt.   17 alpha a   -0.24212 X
     Occ.    7 alpha a   ---  Virt.   26 alpha a   -0.09032 X
     Occ.    8 alpha a   ---  Virt.   16 alpha a   -0.24220 X
     Occ.    8 alpha a   ---  Virt.   27 alpha a   -0.09017 X
     Occ.    9 alpha a   ---  Virt.   10 alpha a   -0.21381 X
     Occ.    9 alpha a   ---  Virt.   14 alpha a   -0.25989 X
     Occ.    9 alpha a   ---  Virt.   15 alpha a    0.10332 X
     Occ.    9 alpha a   ---  Virt.   24 alpha a   -0.10392 X
     Occ.    6 beta  a   ---  Virt.    7 beta  a    0.83515 X
     Occ.    6 beta  a   ---  Virt.    7 beta  a    0.05476 Y
     Occ.    6 beta  a   ---  Virt.   11 beta  a    0.18645 X
     Occ.    6 beta  a   ---  Virt.   21 beta  a   -0.07803 X

              Target root =      1
          Target symmetry = none
      Ground state energy =   -341.136241704645
        Excitation energy =      0.249628312984
     Excited state energy =   -340.886613391662

  stored tddft:energy   -340.88661339166174     

 Task  times  cpu:       30.4s     wall:       35.4s


                                NWChem Input Module
                                -------------------


 Summary of allocated global arrays
-----------------------------------
  No active global arrays


MA_summarize_allocated_blocks: starting scan ...
heap block 'gridpts', handle 124, address 0x12ba8e28:
	type of elements:		double precision
	number of elements:		1048462957
	address of client space:	0x12ba8e80
	index for client space:		11119911
	total number of bytes:		8387703752
MA_summarize_allocated_blocks: scan completed: 1 heap block, 0 stack blocks
MA usage statistics:

	allocation statistics:
					      heap	     stack
					      ----	     -----
	current number of blocks	         1	         0
	maximum number of blocks	        18	        54
	current total bytes		8387703752	         0
	maximum total bytes		8388693568	  22513464
	maximum total K-bytes		   8388694	     22514
	maximum total M-bytes		      8389	        23


                                     CITATION
                                     --------
                Please cite the following reference when publishing
                           results obtained with NWChem:

          E. Apra, E. J. Bylaska, W. A. de Jong, N. Govind, K. Kowalski,
       T. P. Straatsma, M. Valiev, H. J. J. van Dam, Y. Alexeev, J. Anchell,
       V. Anisimov, F. W. Aquino, R. Atta-Fynn, J. Autschbach, N. P. Bauman,
     J. C. Becca, D. E. Bernholdt, K. Bhaskaran-Nair, S. Bogatko, P. Borowski,
         J. Boschen, J. Brabec, A. Bruner, E. Cauet, Y. Chen, G. N. Chuev,
      C. J. Cramer, J. Daily, M. J. O. Deegan, T. H. Dunning Jr., M. Dupuis,
   K. G. Dyall, G. I. Fann, S. A. Fischer, A. Fonari, H. Fruchtl, L. Gagliardi,
      J. Garza, N. Gawande, S. Ghosh, K. Glaesemann, A. W. Gotz, J. Hammond,
       V. Helms, E. D. Hermes, K. Hirao, S. Hirata, M. Jacquelin, L. Jensen,
   B. G. Johnson, H. Jonsson, R. A. Kendall, M. Klemm, R. Kobayashi, V. Konkov,
      S. Krishnamoorthy, M. Krishnan, Z. Lin, R. D. Lins, R. J. Littlefield,
      A. J. Logsdail, K. Lopata, W. Ma, A. V. Marenich, J. Martin del Campo,
   D. Mejia-Rodriguez, J. E. Moore, J. M. Mullin, T. Nakajima, D. R. Nascimento,
    J. A. Nichols, P. J. Nichols, J. Nieplocha, A. Otero-de-la-Roza, B. Palmer,
    A. Panyala, T. Pirojsirikul, B. Peng, R. Peverati, J. Pittner, L. Pollack,
   R. M. Richard, P. Sadayappan, G. C. Schatz, W. A. Shelton, D. W. Silverstein,
   D. M. A. Smith, T. A. Soares, D. Song, M. Swart, H. L. Taylor, G. S. Thomas,
            V. Tipparaju, D. G. Truhlar, K. Tsemekhman, T. Van Voorhis,
      A. Vazquez-Mayagoitia, P. Verma, O. Villa, A. Vishnu, K. D. Vogiatzis,
        D. Wang, J. H. Weare, M. J. Williamson, T. L. Windus, K. Wolinski,
        A. T. Wong, Q. Wu, C. Yang, Q. Yu, M. Zacharias, Z. Zhang, Y. Zhao,
                                and R. J. Harrison
                        "NWChem: Past, present, and future
                         J. Chem. Phys. 152, 184102 (2020)
                               doi:10.1063/5.0004997

                                      AUTHORS
                                      -------
  E. Apra, E. J. Bylaska, N. Govind, K. Kowalski, M. Valiev, D. Mejia-Rodriguez,
       A. Kunitsa, N. P. Bauman, A. Panyala, W. A. de Jong, T. P. Straatsma,
   H. J. J. van Dam, D. Wang, T. L. Windus, J. Hammond, J. Autschbach, A. Woods,
    K. Bhaskaran-Nair, J. Brabec, K. Lopata, S. A. Fischer, S. Krishnamoorthy,
     M. Jacquelin, W. Ma, M. Klemm, O. Villa, Y. Chen, V. Anisimov, F. Aquino,
     S. Hirata, M. T. Hackler, E. Hermes, L. Jensen, J. E. Moore, J. C. Becca,
      V. Konjkov, T. Risthaus, M. Malagoli, A. Marenich, A. Otero-de-la-Roza,
        J. Mullin, P. Nichols, R. Peverati, J. Pittner, Y. Zhao, P.-D. Fan,
        A. Fonari, M. J. Williamson, R. J. Harrison, J. R. Rehr, M. Dupuis,
     D. Silverstein, D. M. A. Smith, J. Nieplocha, V. Tipparaju, M. Krishnan,
     B. E. Van Kuiken, A. Vazquez-Mayagoitia, M. Swart, Q. Wu, T. Van Voorhis,
     A. A. Auer, M. Nooijen, L. D. Crosby, E. Brown, G. Cisneros, G. I. Fann,
   H. Fruchtl, J. Garza, K. Hirao, R. A. Kendall, J. A. Nichols, K. Tsemekhman,
    K. Wolinski, J. Anchell, D. E. Bernholdt, P. Borowski, T. Clark, D. Clerc,
   H. Dachsel, M. J. O. Deegan, K. Dyall, D. Elwood, E. Glendening, M. Gutowski,
   A. C. Hess, J. Jaffe, B. G. Johnson, J. Ju, R. Kobayashi, R. Kutteh, Z. Lin,
   R. Littlefield, X. Long, B. Meng, T. Nakajima, S. Niu, L. Pollack, M. Rosing,
   K. Glaesemann, G. Sandrone, M. Stave, H. Taylor, G. Thomas, J. H. van Lenthe,
                               A. T. Wong, Z. Zhang.

 Total times  cpu:       30.4s     wall:       36.5s
