 argument  1 = /home/aditisingh4812/nw_chem/nwchem-run/nwchem-run/tddft/open/open_atom/geom-MOL/p.nw
                                         
                                         


             Northwest Computational Chemistry Package (NWChem) 7.2.3
             --------------------------------------------------------


                    Environmental Molecular Sciences Laboratory
                       Pacific Northwest National Laboratory
                                Richland, WA 99352

                              Copyright (c) 1994-2022
                       Pacific Northwest National Laboratory
                            Battelle Memorial Institute

             NWChem is an open-source computational chemistry package
                        distributed under the terms of the
                      Educational Community License (ECL) 2.0
             A copy of the license is included with this distribution
                              in the LICENSE.TXT file

                                  ACKNOWLEDGMENT
                                  --------------

            This software and its documentation were developed at the
            EMSL at Pacific Northwest National Laboratory, a multiprogram
            national laboratory, operated for the U.S. Department of Energy
            by Battelle under Contract Number DE-AC05-76RL01830. Support
            for this work was provided by the Department of Energy Office
            of Biological and Environmental Research, Office of Basic
            Energy Sciences, and the Office of Advanced Scientific Computing.


           Job information
           ---------------

    hostname        = p17
    program         = /home/aditisingh4812/nw_chem/nwchem-7.2.3-release.revision-d690e065-srconly.2024-08-27/nwchem-7.2.3/bin/LINUX64/nwchem
    date            = Thu May  8 11:54:21 2025

    compiled        = Mon_Apr_07_18:51:54_2025
    source          = /home/aditisingh4812/nw_chem/nwchem-7.2.3-release.revision-d690e065-srconly.2024-08-27/nwchem-7.2.3
    nwchem branch   = 7.2.3
    nwchem revision = d690e065
    ga revision     = 5.8.0
    use scalapack   = F
    input           = /home/aditisingh4812/nw_chem/nwchem-run/nwchem-run/tddft/open/open_atom/geom-MOL/p.nw
    prefix          = p.
    data base       = ./p.db
    status          = startup
    nproc           =        8
    time left       =     -1s



           Memory information
           ------------------

    heap     = 2621439998 doubles =  20000.0 Mbytes
    stack    = 2621439995 doubles =  20000.0 Mbytes
    global   = 6553600000 doubles =  50000.0 Mbytes (distinct from heap & stack)
    total    = ********** doubles =  90000.0 Mbytes
    verify   = yes
    hardfail = no 


           Directory information
           ---------------------

  0 permanent = .
  0 scratch   = .




                                NWChem Input Module
                                -------------------



 Scaling coordinates for geometry "geometry" by  1.889725989
 (inverse scale =  0.529177249)



                             Geometry "geometry" -> ""
                             -------------------------

 Output coordinates in angstroms (scale by  1.889725989 to convert to a.u.)

  No.       Tag          Charge          X              Y              Z
 ---- ---------------- ---------- -------------- -------------- --------------
    1 P                   15.0000     0.00000000     0.00000000     0.00000000

      Atomic Mass 
      ----------- 

      P                 30.973760


 Effective nuclear repulsion energy (a.u.)       0.0000000000

            Nuclear Dipole moment (a.u.) 
            ----------------------------
        X                 Y               Z
 ---------------- ---------------- ----------------
     0.0000000000     0.0000000000     0.0000000000


            XYZ format geometry
            -------------------
     1
 geometry
 P                     0.00000000     0.00000000     0.00000000



 Summary of "ao basis" -> "" (cartesian)
 ------------------------------------------------------------------------------
       Tag                 Description            Shells   Functions and Types
 ---------------- ------------------------------  ------  ---------------------
 *                        aug-cc-pVTZ                 on all atoms 


  pbe96 is a nonlocal functional; adding pw91lda local functional. 

                                 NWChem DFT Module
                                 -----------------


                      Basis "ao basis" -> "ao basis" (cartesian)
                      -----
  P (Phosphorous)
  ---------------
            Exponent  Coefficients 
       -------------- ---------------------------------------------------------
  1 S  3.12400000E+05  0.000058
  1 S  4.68000000E+04  0.000448
  1 S  1.06500000E+04  0.002349
  1 S  3.01800000E+03  0.009783
  1 S  9.86800000E+02  0.034147
  1 S  3.57400000E+02  0.100204
  1 S  1.39600000E+02  0.234372
  1 S  5.76300000E+01  0.382434
  1 S  2.46000000E+01  0.318088
  1 S  1.01200000E+01  0.070779
  1 S  4.28300000E+00 -0.001818
  1 S  1.80500000E+00  0.002162
  1 S  2.78200000E-01  0.000432

  2 S  3.12400000E+05 -0.000016
  2 S  4.68000000E+04 -0.000122
  2 S  1.06500000E+04 -0.000640
  2 S  3.01800000E+03 -0.002674
  2 S  9.86800000E+02 -0.009498
  2 S  3.57400000E+02 -0.028935
  2 S  1.39600000E+02 -0.074512
  2 S  5.76300000E+01 -0.149938
  2 S  2.46000000E+01 -0.189467
  2 S  1.01200000E+01  0.036327
  2 S  4.28300000E+00  0.528816
  2 S  1.80500000E+00  0.519115
  2 S  2.78200000E-01 -0.009257

  3 S  3.12400000E+05  0.000004
  3 S  4.68000000E+04  0.000033
  3 S  1.06500000E+04  0.000176
  3 S  3.01800000E+03  0.000734
  3 S  9.86800000E+02  0.002618
  3 S  3.57400000E+02  0.007979
  3 S  1.39600000E+02  0.020794
  3 S  5.76300000E+01  0.042445
  3 S  2.46000000E+01  0.056344
  3 S  1.01200000E+01 -0.012736
  3 S  4.28300000E+00 -0.196495
  3 S  1.80500000E+00 -0.353555
  3 S  2.78200000E-01  0.700912

  4 S  6.15800000E-01  1.000000

  5 S  1.05500000E-01  1.000000

  6 S  4.09000000E-02  1.000000

  7 P  5.04900000E+02  0.002337
  7 P  1.19400000E+02  0.018541
  7 P  3.79600000E+01  0.084969
  7 P  1.39500000E+01  0.244615
  7 P  5.45700000E+00  0.422766
  7 P  2.17700000E+00  0.368439
  7 P  2.87700000E-01 -0.003790

  8 P  5.04900000E+02 -0.000555
  8 P  1.19400000E+02 -0.004459
  8 P  3.79600000E+01 -0.020635
  8 P  1.39500000E+01 -0.061769
  8 P  5.45700000E+00 -0.108924
  8 P  2.17700000E+00 -0.105599
  8 P  2.87700000E-01  0.576981

  9 P  8.01000000E-01  1.000000

 10 P  9.71400000E-02  1.000000

 11 P  3.07000000E-02  1.000000

 12 D  2.16000000E-01  1.000000

 13 D  6.52000000E-01  1.000000

 14 D  7.75000000E-02  1.000000

 15 F  4.52000000E-01  1.000000

 16 F  1.65000000E-01  1.000000



 Summary of "ao basis" -> "ao basis" (cartesian)
 ------------------------------------------------------------------------------
       Tag                 Description            Shells   Functions and Types
 ---------------- ------------------------------  ------  ---------------------
 P                        aug-cc-pVTZ               16       59   6s5p3d2f




 Summary of "ao basis" -> "ao basis" (cartesian)
 ------------------------------------------------------------------------------
       Tag                 Description            Shells   Functions and Types
 ---------------- ------------------------------  ------  ---------------------
 P                        aug-cc-pVTZ               16       59   6s5p3d2f




                         Geometry "geometry" -> "geometry"
                         ---------------------------------

 Output coordinates in angstroms (scale by  1.889725989 to convert to a.u.)

  No.       Tag          Charge          X              Y              Z
 ---- ---------------- ---------- -------------- -------------- --------------
    1 P                   15.0000     0.00000000     0.00000000     0.00000000

      Atomic Mass 
      ----------- 

      P                 30.973760


 Effective nuclear repulsion energy (a.u.)       0.0000000000

            Nuclear Dipole moment (a.u.) 
            ----------------------------
        X                 Y               Z
 ---------------- ---------------- ----------------
     0.0000000000     0.0000000000     0.0000000000


                      Basis "ao basis" -> "ao basis" (cartesian)
                      -----
  P (Phosphorous)
  ---------------
            Exponent  Coefficients 
       -------------- ---------------------------------------------------------
  1 S  3.12400000E+05  0.543302
  1 S  4.68000000E+04  1.016510
  1 S  1.06500000E+04  1.755212
  1 S  3.01800000E+03  2.838626
  1 S  9.86800000E+02  4.284329
  1 S  3.57400000E+02  5.869663
  1 S  1.39600000E+02  6.783159
  1 S  5.76300000E+01  5.700398
  1 S  2.46000000E+01  2.503865
  1 S  1.01200000E+01  0.286188
  1 S  4.28300000E+00 -0.003857
  1 S  1.80500000E+00  0.002399
  1 S  2.78200000E-01  0.000118

  2 S  3.12400000E+05 -0.154263
  2 S  4.68000000E+04 -0.288533
  2 S  1.06500000E+04 -0.499580
  2 S  3.01800000E+03 -0.811201
  2 S  9.86800000E+02 -1.245815
  2 S  3.57400000E+02 -1.771835
  2 S  1.39600000E+02 -2.254376
  2 S  5.76300000E+01 -2.336327
  2 S  2.46000000E+01 -1.559087
  2 S  1.01200000E+01  0.153550
  2 S  4.28300000E+00  1.172873
  2 S  1.80500000E+00  0.602222
  2 S  2.78200000E-01 -0.002642

  3 S  3.12400000E+05  0.064659
  3 S  4.68000000E+04  0.120830
  3 S  1.06500000E+04  0.209524
  3 S  3.01800000E+03  0.339765
  3 S  9.86800000E+02  0.523711
  3 S  3.57400000E+02  0.745212
  3 S  1.39600000E+02  0.959608
  3 S  5.76300000E+01  1.008790
  3 S  2.46000000E+01  0.707193
  3 S  1.01200000E+01 -0.082111
  3 S  4.28300000E+00 -0.664744
  3 S  1.80500000E+00 -0.625614
  3 S  2.78200000E-01  0.305087

  4 S  6.15800000E-01  0.495439

  5 S  1.05500000E-01  0.131932

  6 S  4.09000000E-02  0.064819

  7 P  5.04900000E+02  8.302460
  7 P  1.19400000E+02 10.861202
  7 P  3.79600000E+01 11.882536
  7 P  1.39500000E+01  9.787915
  7 P  5.45700000E+00  5.233375
  7 P  2.17700000E+00  1.446032
  7 P  2.87700000E-01 -0.001185

  8 P  5.04900000E+02 -3.255601
  8 P  1.19400000E+02 -4.311739
  8 P  3.79600000E+01 -4.763313
  8 P  1.39500000E+01 -4.079792
  8 P  5.45700000E+00 -2.225681
  8 P  2.17700000E+00 -0.684116
  8 P  2.87700000E-01  0.297840

  9 P  8.01000000E-01  1.080142

 10 P  9.71400000E-02  0.077301

 11 P  3.07000000E-02  0.018317

 12 D  2.16000000E-01  0.112643

 13 D  6.52000000E-01  0.778651

 14 D  7.75000000E-02  0.018736

 15 F  4.52000000E-01  0.246613

 16 F  1.65000000E-01  0.025544



    Basis function labels
    ---------------------
       No.  Atm El Type
       ---  --- -- ----
        1    1 P  s          
        2    1 P  s          
        3    1 P  s          
        4    1 P  s          
        5    1 P  s          
        6    1 P  s          
        7    1 P  px         
        8    1 P  py         
        9    1 P  pz         
       10    1 P  px         
       11    1 P  py         
       12    1 P  pz         
       13    1 P  px         
       14    1 P  py         
       15    1 P  pz         
       16    1 P  px         
       17    1 P  py         
       18    1 P  pz         
       19    1 P  px         
       20    1 P  py         
       21    1 P  pz         
       22    1 P  dxx        
       23    1 P  dxy        
       24    1 P  dxz        
       25    1 P  dyy        
       26    1 P  dyz        
       27    1 P  dzz        
       28    1 P  dxx        
       29    1 P  dxy        
       30    1 P  dxz        
       31    1 P  dyy        
       32    1 P  dyz        
       33    1 P  dzz        
       34    1 P  dxx        
       35    1 P  dxy        
       36    1 P  dxz        
       37    1 P  dyy        
       38    1 P  dyz        
       39    1 P  dzz        
       40    1 P  fxxx       
       41    1 P  fxxy       
       42    1 P  fxxz       
       43    1 P  fxyy       
       44    1 P  fxyz       
       45    1 P  fxzz       
       46    1 P  fyyy       
       47    1 P  fyyz       
       48    1 P  fyzz       
       49    1 P  fzzz       
       50    1 P  fxxx       
       51    1 P  fxxy       
       52    1 P  fxxz       
       53    1 P  fxyy       
       54    1 P  fxyz       
       55    1 P  fxzz       
       56    1 P  fyyy       
       57    1 P  fyyz       
       58    1 P  fyzz       
       59    1 P  fzzz       
  int_init: cando_txs set to always be  F

 Schwarz integral screening summary 
 ---------------------------------- 

        No. of atom pairs =       1
       No. of shell pairs =     136

 Atomic screening 

   value      no.     value      no.     value      no.     value      no.   
  -------- ------    -------- ------    -------- ------    -------- ------   
  0.00D+00      0    1.00D-13      0    1.00D-12      0    1.00D-11      0
  1.00D-10      0    1.00D-09      0    1.00D-08      0    1.00D-07      0
  1.00D-06      0    1.00D-05      0    1.00D-04      0    1.00D-03      0
  1.00D-02      0    1.00D-01      0    1.00D+00      1    1.00D+01      0


 Shell screening 

   value      no.     value      no.     value      no.     value      no.   
  -------- ------    -------- ------    -------- ------    -------- ------   
  0.00D+00      0    1.00D-13      0    1.00D-12      0    1.00D-11      0
  1.00D-10      0    1.00D-09      0    1.00D-08      0    1.00D-07      0
  1.00D-06      0    1.00D-05      0    1.00D-04      1    1.00D-03      5
  1.00D-02      7    1.00D-01     52    1.00D+00     71    1.00D+01      0


  Caching 1-el integrals 
  atom                     1  - neighbor  & S                     1   10.000000000000000       exp AB    3.0700000000000022E-002   3.0700000000000022E-002
 zmins =     0.030700000    0.030700000 lprod =   2 range =        18.90 acc   0.10D-06
 sh     0.000000000
  Center:                     1  Radial Pts. & Wghts. 
    1        0.000002666           5.6855149E-17
    2        0.000021329           1.4555025E-14
    3        0.000071986           3.7303681E-13
    4        0.000170636           3.7263053E-12
    5        0.000333278           2.2211932E-11
    6        0.000575919           9.5516358E-11
    7        0.000914568           3.2787623E-10
    8        0.001365246           9.5438262E-10
    9        0.001943987           2.4492978E-09
   10        0.002666838           5.6914775E-09
   11        0.003549869           1.2204427E-08
   12        0.004609176           2.4491019E-08
   13        0.005860884           4.6485507E-08
   14        0.007321153           8.4148141E-08
   15        0.009006191           1.4623058E-07
   16        0.010932250           2.4524324E-07
   17        0.013115644           3.9865898E-07
   18        0.015572749           6.3039095E-07
   19        0.018320016           9.7258604E-07
   20        0.021373981           1.4677796E-06
   21        0.024751269           2.1714613E-06
   22        0.028468611           3.1551070E-06
   23        0.032542852           4.5097364E-06
   24        0.036990962           6.3500628E-06
   25        0.041830049           8.8193073E-06
   26        0.047077373           1.2094757E-05
   27        0.052750358           1.6394155E-05
   28        0.058866607           2.1983017E-05
   29        0.065443919           2.9182988E-05
   30        0.072500302           3.8381343E-05
   31        0.080053994           5.0041782E-05
   32        0.088123475           6.4716643E-05
   33        0.096727492           8.3060706E-05
   34        0.105885075           1.0584677E-04
   35        0.115615560           1.3398317E-04
   36        0.125938607           1.6853353E-04
   37        0.136874229           2.1073887E-04
   38        0.148442812           2.6204249E-04
   39        0.160665144           3.2411785E-04
   40        0.173562438           3.9889974E-04
   41        0.187156366           4.8861929E-04
   42        0.201469085           5.9584308E-04
   43        0.216523272           7.2351697E-04
   44        0.232342157           8.7501505E-04
   45        0.248949558           1.0541945E-03
   46        0.266369921           1.2654568E-03
   47        0.284628361           1.5138167E-03
   48        0.303750703           1.8049783E-03
   49        0.323763529           2.1454221E-03
   50        0.344694227           2.5425001E-03
   51        0.366571042           3.0045446E-03
   52        0.389423132           3.5409888E-03
   53        0.413280627           4.1625022E-03
   54        0.438174693           4.8811434E-03
   55        0.464137596           5.7105310E-03
   56        0.491202780           6.6660354E-03
   57        0.519404937           7.7649962E-03
   58        0.548780098           9.0269649E-03
   59        0.579365716           1.0473980E-02
   60        0.611200764           1.2130879E-02
   61        0.644325838           1.4025643E-02
   62        0.678783272           1.6189802E-02
   63        0.714617252           1.8658876E-02
   64        0.751873949           2.1472887E-02
   65        0.790601661           2.4676938E-02
   66        0.830850965           2.8321872E-02
   67        0.872674880           3.2465015E-02
   68        0.916129052           3.7171040E-02
   69        0.961271946           4.2512934E-02
   70        1.008165061           4.8573125E-02
   71        1.056873165           5.5444759E-02
   72        1.107464551           6.3233178E-02
   73        1.160011315           7.2057611E-02
   74        1.214589669           8.2053139E-02
   75        1.271280275           9.3372956E-02
   76        1.330168621           1.0619099E-01
   77        1.391345435           1.2070497E-01
   78        1.454907142           1.3713993E-01
   79        1.520956371           1.5575241E-01
   80        1.589602517           1.7683529E-01
   81        1.660962374           2.0072346E-01
   82        1.735160836           2.2780059E-01
   83        1.812331682           2.5850701E-01
   84        1.892618465           2.9334913E-01
   85        1.976175503           3.3291063E-01
   86        2.063169006           3.7786582E-01
   87        2.153778355           4.2899560E-01
   88        2.248197544           4.8720677E-01
   89        2.346636840           5.5355527E-01
   90        2.449324673           6.2927444E-01
   91        2.556509813           7.1580949E-01
   92        2.668463880           8.1485974E-01
   93        2.785484254           9.2843075E-01
   94        2.907897458           1.0588988E+00
   95        3.036063120           1.2090917E+00
   96        3.170378626           1.3823895E+00
   97        3.311284624           1.5828528E+00
   98        3.459271559           1.8153852E+00
   99        3.614887501           2.0859426E+00
  100        3.778747560           2.4018040E+00
  101        3.951545314           2.7719250E+00
  102        4.134066776           3.2074055E+00
  103        4.327207611           3.7221123E+00
  104        4.531994558           4.3335219E+00
  105        4.749612349           5.0638717E+00
  106        4.981437916           5.9417585E+00
  107        5.229084382           7.0043911E+00
  108        5.494458407           8.3008218E+00
  109        5.779836059           9.8966706E+00
  110        6.087964913           1.1881185E+01
  111        6.422204040           1.4378052E+01
  112        6.786720150           1.7562418E+01
  113        7.186769282           2.1688570E+01
  114        7.629113136           2.7136645E+01
  115        8.122655497           3.4494984E+01
  116        8.679455106           4.4713159E+01
  117        9.316418407           5.9405027E+01
  118       10.058306036           8.1498664E+01
  119       10.943505271           1.1678061E+02
  120       12.036325921           1.7810642E+02
  121       13.457326835           2.9937874E+02
  122       15.477167160           5.9896380E+02
  123       18.959498707           1.8124890E+03
     irreducible set of Lebedev Angular points ;
  0.009523809523810  1.000000000000000  0.000000000000000  0.000000000000000
  0.032142857142857  0.577350269189626  0.577350269189626  0.577350269189626
  0.028571428571429  0.459700843380983  0.000000000000000  0.888073833977115
   total no. of   reducible points:  38; test:  1.00000000
  0.012698412698413  1.000000000000000  0.000000000000000  0.000000000000000
  0.022574955908289  0.707106781186547  0.707106781186547  0.000000000000000
  0.021093750000000  0.577350269189626  0.577350269189626  0.577350269189626
  0.020173335537919  0.301511344577764  0.301511344577764  0.904534033733291
   total no. of   reducible points:  50; test:  1.00000000
  0.000513067179734  1.000000000000000  0.000000000000000  0.000000000000000
  0.016604069565742  0.707106781186547  0.707106781186547  0.000000000000000
 -0.029586038961039  0.577350269189626  0.577350269189626  0.577350269189626
  0.026576207082159  0.480384461415261  0.480384461415261  0.733799385705343
  0.016522170993716  0.320772648980776  0.000000000000000  0.947156221362588
   total no. of   reducible points:  74; test:  1.00000000
  0.011544011544012  1.000000000000000  0.000000000000000  0.000000000000000
  0.011943909085856  0.577350269189626  0.577350269189626  0.577350269189626
  0.011110555710603  0.369602846454150  0.369602846454150  0.852518311701268
  0.011876501294537  0.694354006602666  0.694354006602666  0.189063552885395
  0.011812303746904  0.374243039090341  0.000000000000000  0.927330657151172
   total no. of   reducible points:  86; test:  1.00000000
  0.003828270494937  1.000000000000000  0.000000000000000  0.000000000000000
  0.009793737512488  0.577350269189626  0.577350269189626  0.577350269189626
  0.008211737283191  0.185115635344736  0.185115635344736  0.965124035086594
  0.009942814891178  0.690421048382292  0.690421048382292  0.215957291845848
  0.009595471336071  0.395689473055942  0.395689473055942  0.828769981252592
  0.009694996361663  0.478369028812150  0.000000000000000  0.878158910604066
   total no. of   reducible points: 110; test:  1.00000000
  0.000599631368862  1.000000000000000  0.000000000000000  0.000000000000000
  0.007372999718621  0.707106781186547  0.707106781186547  0.000000000000000
  0.007210515360144  0.577350269189626  0.577350269189626  0.577350269189626
  0.007116355493118  0.676441040011426  0.676441040011426  0.291298882209527
  0.006753829486314  0.417496122796545  0.417496122796545  0.807089818359583
  0.007574394159054  0.157467667203908  0.157467667203908  0.974888643677173
  0.006991087353303  0.140355381171318  0.449332832326956  0.882270011260323
   total no. of   reducible points: 146; test:  1.00000000
  0.005544842902037  1.000000000000000  0.000000000000000  0.000000000000000
  0.006071332770671  0.707106781186547  0.707106781186547  0.000000000000000
  0.006383674773515  0.577350269189626  0.577350269189626  0.577350269189626
  0.005183387587748  0.255125262111413  0.255125262111413  0.932642590312691
  0.006317929009814  0.674360146036277  0.674360146036277  0.300793595137701
  0.006201670006589  0.431891069671941  0.431891069671941  0.791795559393492
  0.005477143385137  0.261393136033599  0.000000000000000  0.965232421976448
  0.005968383987681  0.499045316179604  0.144663074432512  0.854415804684659
   total no. of   reducible points: 170; test:  1.00000000
  0.001782340447245  1.000000000000000  0.000000000000000  0.000000000000000
  0.005716905949977  0.707106781186547  0.707106781186547  0.000000000000000
  0.005573383178849  0.577350269189626  0.577350269189626  0.577350269189626
  0.005608704082588  0.671297344269523  0.671297344269523  0.314196994182586
  0.005158237711805  0.289246562757544  0.289246562757544  0.912509096867474
  0.005518771467274  0.444693317871744  0.444693317871744  0.777493219314767
  0.004106777028169  0.129933544765007  0.129933544765007  0.982972302707253
  0.005051846064615  0.345770219761128  0.000000000000000  0.938319218137592
  0.005530248916233  0.159041710538353  0.836036015482459  0.525118572443642
   total no. of   reducible points: 194; test:  1.00000000
 -0.055226399197273  1.000000000000000  0.000000000000000  0.000000000000000
  0.004450274607445  0.577350269189626  0.577350269189626  0.577350269189626
  0.004496841067921  0.449204468739761  0.449204468739761  0.772289253148364
  0.005049153450479  0.252041949021020  0.252041949021020  0.934317778845812
  0.003976408018052  0.698190665844724  0.698190665844724  0.158302205463478
  0.004401400650381  0.658740524346096  0.658740524346096  0.363485684956727
  0.017245443505444  0.040385440500977  0.040385440500977  0.998367683967727
  0.004231083095357  0.582384230971558  0.000000000000000  0.812913653173365
  0.005198069864064  0.354587739051869  0.000000000000000  0.935022745880593
  0.004695720972569  0.227218180899819  0.486466153588665  0.843636521068894
   total no. of   reducible points: 230; test:  1.00000000
 -0.001313769127327  1.000000000000000  0.000000000000000  0.000000000000000
 -0.002522728704859  0.707106781186547  0.707106781186547  0.000000000000000
  0.004186853881701  0.577350269189626  0.577350269189626  0.577350269189626
  0.005315167977811  0.703937339158548  0.703937339158548  0.094575076403713
  0.004047142377086  0.101252624857241  0.101252624857241  0.989694807462905
  0.004112482394407  0.464744872642054  0.464744872642054  0.753673939250816
  0.003595584899759  0.327742065497163  0.327742065497163  0.886098344997499
  0.004256131351428  0.662033866369997  0.662033866369997  0.351315128564633
  0.004229582700647  0.850650808352040  0.000000000000000  0.525731112119134
  0.004080914225781  0.323348454269290  0.115311201100970  0.939227929749916
  0.004071467593831  0.231479015871260  0.524493924092236  0.819343388819120
   total no. of   reducible points: 266; test:  1.00000000
  0.000854591172513  1.000000000000000  0.000000000000000  0.000000000000000
  0.003599119285026  0.577350269189626  0.577350269189626  0.577350269189626
  0.003449788424306  0.351564034557011  0.351564034557011  0.867643624544083
  0.003604822601420  0.656632941021961  0.656632941021961  0.371034178384821
  0.003576729661743  0.472905413258100  0.472905413258100  0.743452042987556
  0.002352101413689  0.096183085226148  0.096183085226148  0.990705621379408
  0.003108953122414  0.221964523629418  0.221964523629418  0.949454317226443
  0.003650045807677  0.701176641608955  0.701176641608955  0.129238672710514
  0.002982344963172  0.264415288706066  0.000000000000000  0.964408914879206
  0.003600820932216  0.571895589187896  0.000000000000000  0.820326419827759
  0.003571540554273  0.251003475177047  0.800072749407395  0.544867737258077
  0.003392312205006  0.123354853258333  0.412772408316853  0.902442529533000
   total no. of   reducible points: 302; test:  1.00000000
  0.003006796749454  1.000000000000000  0.000000000000000  0.000000000000000
  0.003050627745651  0.577350269189626  0.577350269189626  0.577350269189626
  0.001621104600289  0.706896546391232  0.706896546391232  0.024383301669356
  0.003005701484902  0.479468262571203  0.479468262571203  0.734996850587746
  0.002990992529654  0.192753315487802  0.192753315487802  0.962129055136014
  0.002982170644108  0.693035796132712  0.693035796132712  0.198501311223365
  0.002721564237311  0.360830211552009  0.360830211552009  0.860001812127547
  0.003033513795811  0.649848616149617  0.649848616149617  0.394199888605839
  0.003007949555219  0.193294501323034  0.000000000000000  0.981140782843257
  0.002881964603055  0.380049491989930  0.000000000000000  0.924966152698679
  0.002958357626536  0.289955882549957  0.793453785658232  0.535123047718276
  0.003036020026407  0.096841214551040  0.828080150668686  0.552182074349399
  0.002832187403926  0.183343464704166  0.907465826530513  0.378009189874487
   total no. of   reducible points: 350; test:  1.00000000
  0.000526589796822  1.000000000000000  0.000000000000000  0.000000000000000
  0.002548219972003  0.707106781186547  0.707106781186547  0.000000000000000
  0.002512317418927  0.577350269189626  0.577350269189626  0.577350269189626
  0.002530403801186  0.690934630750911  0.690934630750911  0.212646824707552
  0.002014279020919  0.177483605460916  0.177483605460916  0.967987158791473
  0.002501725168403  0.491434263778475  0.491434263778475  0.719016501040843
  0.002513267174598  0.645666470742426  0.645666470742426  0.407712664897770
  0.002302694782227  0.286128901030764  0.286128901030764  0.914472801120872
  0.001462495621595  0.075680843671780  0.075680843671780  0.994255912631278
  0.002445373437313  0.392725976336800  0.392725976336800  0.831584400419232
  0.002417442375639  0.881813287779429  0.000000000000000  0.471598691151316
  0.001910951282180  0.977642811118265  0.000000000000000  0.210272522857307
  0.002416930044325  0.205482369640304  0.868946032287241  0.450233038258263
  0.002512236854563  0.590515704892527  0.799927854385729  0.106801826075805
  0.002496644054553  0.555015236107681  0.771746262691590  0.310428403516654
  0.002236607760438  0.937180985855372  0.334436314534346  0.099217696364292
   total no. of   reducible points: 434; test:  1.00000000
  0.000309512129531  1.000000000000000  0.000000000000000  0.000000000000000
  0.001852379698597  0.577350269189626  0.577350269189626  0.577350269189626
  0.001871790639278  0.704095493822747  0.704095493822747  0.092190407076898
  0.001858812585438  0.680774406645524  0.680774406645524  0.270356088359165
  0.001852028828296  0.637254693925875  0.637254693925875  0.433373868777154
  0.001846715956151  0.504441970780036  0.504441970780036  0.700768575373573
  0.001818471778163  0.421576178401097  0.421576178401097  0.802836877335274
  0.001749564657281  0.331792073647212  0.331792073647212  0.883078727934133
  0.001617210647254  0.238473670142189  0.238473670142189  0.941414158220403
  0.001384737234852  0.145903644915776  0.145903644915776  0.978480583762694
  0.000976433116505  0.060950341155072  0.060950341155072  0.996278129754016
  0.001857161196774  0.611684344200988  0.000000000000000  0.791101929626902
  0.001705153996396  0.396475534819986  0.000000000000000  0.918045287711454
  0.001300321685886  0.172478200990772  0.000000000000000  0.985013335028002
  0.001842866472905  0.561026380862206  0.351828092773352  0.749310611904116
  0.001802658934377  0.474239284255198  0.263471665593795  0.840047488359050
  0.001849830560444  0.598412649788538  0.181664084036021  0.780320742479920
  0.001713904507107  0.379103540769556  0.172079522565688  0.909213475092374
  0.001555213603397  0.277867319058624  0.082130215819325  0.957102074310073
  0.001802239128009  0.503356427107512  0.089992058420749  0.859379855890721
   total no. of   reducible points: 590; test:  1.00000000
  0.000219294208818  1.000000000000000  0.000000000000000  0.000000000000000
  0.001436433617319  0.707106781186547  0.707106781186547  0.000000000000000
  0.001421940344336  0.577350269189626  0.577350269189626  0.577350269189626
  0.000679812351105  0.050872044105024  0.050872044105024  0.997408677652823
  0.000991318423529  0.122819879017883  0.122819879017883  0.984799753572301
  0.001180207833239  0.202689081440879  0.202689081440879  0.958036675983391
  0.001296599602081  0.284774515646429  0.284774515646429  0.915317950483155
  0.001365871427428  0.365671907897803  0.365671907897803  0.855901928697887
  0.001402988604775  0.442826488671347  0.442826488671347  0.779621319527635
  0.001418645563596  0.514061962724974  0.514061962724974  0.686644447264154
  0.001421376741852  0.630640121916680  0.630640121916680  0.452311920313658
  0.001423996475491  0.671688333202261  0.671688333202261  0.312521305001653
  0.001431554042179  0.697979268533688  0.697979268533688  0.160155803498829
  0.000925440149987  0.144686567419531  0.000000000000000  0.989477537495599
  0.001250239995054  0.339026347541122  0.000000000000000  0.940776878793759
  0.001394365843329  0.533580465126351  0.000000000000000  0.845749305193653
  0.001127089094672  0.069440243933494  0.235518789424233  0.969385863498432
  0.001345753760911  0.226900410952946  0.410218247404573  0.883310360522113
  0.001424957283317  0.080255746077753  0.621430241748161  0.779348105702661
  0.001261523341238  0.146799952789657  0.324528434571739  0.934414827052402
  0.001392547106053  0.157150776982473  0.522448218969663  0.838064133458312
  0.001418761677878  0.236570299315725  0.601754663408956  0.762840624604670
  0.001338366684480  0.077148158667657  0.434657551614116  0.897285336132833
  0.001393700862676  0.306293666621073  0.490882658903762  0.815609223203975
  0.001415914757467  0.382247737952479  0.564876814909950  0.731300793659766
   total no. of   reducible points: 770; test:  1.00000000
  qrot: 

              1        2        3      
    1    1.0000   0.0000   0.0000
    2    0.0000   1.0000   0.0000
    3    0.0000   0.0000   1.0000
  me                     0   done genpts
  me                     1   done genpts
  me                     2   done genpts
  me                     3   done genpts
  me                     4   done genpts
  me                     6   done genpts
  me                     7   done genpts
  me                     5   done genpts
  me                     0   done uprt
  me                     1   done uprt
  me                     2   done uprt
  me                     3   done uprt
  me                     4   done uprt
  me                     5   done uprt
  me                     6   done uprt
  me                     7   done uprt
  me                     0  done mem
  me                     1  done mem
  me                     2  done mem
  me                     3  done mem
  me                     4  done mem
  me                     5  done mem
  me                     6  done mem
  me                     7  done mem
  dftinpanae: itol2e                     8  iaoacc                    14  tol_rho    1.0000000000000000E-010

            General Information
            -------------------
          SCF calculation type: DFT
          Wavefunction type:  spin polarized.
          No. of atoms     :     1
          No. of electrons :    15
           Alpha electrons :     9
            Beta electrons :     6
          Charge           :     0
          Spin multiplicity:     4
          Use of symmetry is: off; symmetry adaption is: off
          Maximum number of iterations:  50
          AO basis - number of functions:    59
                     number of shells:    16
          Convergence on energy requested:  1.00D-06
          Convergence on density requested:  1.00D-05
          Convergence on gradient requested:  5.00D-04

              XC Information
              --------------
                     Hartree-Fock (Exact) Exchange  1.000          
                     LC-wPBE(h)Exchange Functional  1.000          
            Perdew 1991 LDA Correlation Functional  1.000 local    
           PerdewBurkeErnz. Correlation Functional  1.000 non-local

           Range-Separation Parameters        
           ---------------------------
           Alpha           :  0.00
           Beta            :  1.00
           Gamma           :  0.32
           Short-Range HF  :     F

             Grid Information
             ----------------
          Grid used for XC integration:  fine      
          Radial quadrature: Mura-Knowles        
          Angular quadrature: Lebedev. 
          Tag              B.-S. Rad. Rad. Pts. Rad. Cut. Ang. Pts.
          ---              ---------- --------- --------- ---------
          P                   1.00      123          10.0       770
          Grid pruning is: on 
          Number of quadrature shells:   123
          Spatial weights used:  Erf1

          Convergence Information
          -----------------------
          Convergence aids based upon iterative change in 
          total energy or number of iterations. 
          Levelshifting, if invoked, occurs when the 
          HOMO/LUMO gap drops below (HL_TOL):  1.00D-02
          DIIS, if invoked, will attempt to extrapolate 
          using up to (NFOCK): 10 stored Fock matrices.

                    Damping( 0%)  Levelshifting(0.5)       DIIS
                  --------------- ------------------- ---------------
          dE  on:    start            ASAP                start   
          dE off:    2 iters         50 iters            50 iters 


      Screening Tolerance Information
      -------------------------------
          Density screening/tol_rho:  1.00D-10
          AO Gaussian exp screening on grid/accAOfunc:  14
          CD Gaussian exp screening on grid/accCDfunc:  20
          XC Gaussian exp screening on grid/accXCfunc:  20
          Schwarz screening/accCoul:  1.00D-08



                         Geometry "geometry" -> "geometry"
                         ---------------------------------

 Output coordinates in angstroms (scale by  1.889725989 to convert to a.u.)

  No.       Tag          Charge          X              Y              Z
 ---- ---------------- ---------- -------------- -------------- --------------
    1 P                   15.0000     0.00000000     0.00000000     0.00000000

      Atomic Mass 
      ----------- 

      P                 30.973760


 Effective nuclear repulsion energy (a.u.)       0.0000000000

            Nuclear Dipole moment (a.u.) 
            ----------------------------
        X                 Y               Z
 ---------------- ---------------- ----------------
     0.0000000000     0.0000000000     0.0000000000

  
  CAM type calculations without CDFIT are
  only available with the direct option.
  Forcing Direct SCF
  


     <<<<<<    Before call to DFT_SCF.    >>>>>>
     <<<<<< date:  May  8  time: 11:54:22 >>>>>>


 Setting tolerance for linear dependence to 1.00D-05






 Setting tolerance for linear dependence to 1.00D-05

 Setting tolerance for linear dependence to 1.00D-05
 Setting tolerance for linear dependence to 1.00D-05
 Setting tolerance for linear dependence to 1.00D-05
 Setting tolerance for linear dependence to 1.00D-05
 Setting tolerance for linear dependence to 1.00D-05
 Setting tolerance for linear dependence to 1.00D-05
  lindep tolerance =    1.0000000000000001E-005
  lindep tolerance =    1.0000000000000001E-005
  lindep tolerance =    1.0000000000000001E-005
  lindep tolerance =    1.0000000000000001E-005
  lindep tolerance =    1.0000000000000001E-005
  lindep tolerance =    1.0000000000000001E-005
  lindep tolerance =    1.0000000000000001E-005
  lindep tolerance =    1.0000000000000001E-005


     <<<<<<    Before 3c-2e initialize.   >>>>>>
     <<<<<< date:  May  8  time: 11:54:22 >>>>>>


 Setting fock-build task_bf   :      -1
                    maxquartet:   10000
                    maxeri    :  129600
                    maxscr    :       0
                    intacc    : 0.0D+00
                    denscreen : T
                    dentol    : 1.0D-06


      Superposition of Atomic Density Guess
      -------------------------------------

 Sum of atomic energies:        -340.65781245

      Non-variational initial energy
      ------------------------------

 Total energy =    -340.369472
 1-e energy   =    -471.310939
 2-e energy   =     130.941466
 HOMO         =      -0.168478
 LUMO         =      -0.168478


 Setting fock-build task_bf   :      -1
                    maxquartet:   10000
                    maxeri    :  129600
                    maxscr    :       0
                    intacc    : 0.0D+00
                    denscreen : T
                    dentol    : 1.0D-06


 Wrote molecular orbitals to ./p.movecs

  WARNING: movecs_in_org=atomic not equal to movecs_in=./p.movecs
   Time after variat. SCF:      0.8

 Setting fock-build task_bf   :      -1
                    maxquartet:   10000
                    maxeri    :  129600
                    maxscr    :       0
                    intacc    : 0.0D+00
                    denscreen : T
                    dentol    : 1.0D-06

   Time prior to 1st pass:      0.8


     <<<<<<      Before SCF iter loop.    >>>>>>
     <<<<<< date:  May  8  time: 11:54:22 >>>>>>

           DAMPING=T LEVELSHIFTING=F DIISING=T
          itol2e= 8 iAOacc=12 iXCacc=20


     <<<<<<            calling 1-e int    >>>>>>
     <<<<<< date:  May  8  time: 11:54:22 >>>>>>

    Kinetic Matrix Time:          0.0s

           Kinetic energy =    340.161045601632

    Potential Matrix Time:          0.0s


     <<<<<<    Before call to GETVXC.     >>>>>>
     <<<<<< date:  May  8  time: 11:54:22 >>>>>>



     <<<<<<    Before call to fock_2e.    >>>>>>
     <<<<<< date:  May  8  time: 11:54:22 >>>>>>



     <<<<<<     After call to fock_2e.    >>>>>>
     <<<<<< date:  May  8  time: 11:54:22 >>>>>>

    Fock_2e Build Time:          0.2s
  *** grid_quadv0:                    calc_type:                    1
  *** grid_quadv0:                    grid_written: F
  *** grid_quadv0:                    grad: T
  *** grid_quadv0:                    kske: F
  *** grid_quadv0:                    kslap: F
  *** grid_quadv0:                    do_scf: T
  *** grid_quadv0:                    fde_option:                    0
  *** grid_quadv0:                    n_per_rec:                 3070
  *** grid_quadv0:                    calc_type:                    1
  *** grid_quadv0:                    grid_written: F
  *** grid_quadv0:                    grad: T
  *** grid_quadv0:                    kske: F
  *** grid_quadv0:                    kslap: F
  *** grid_quadv0:                    do_scf: T
  *** grid_quadv0:                    fde_option:                    0
  *** grid_quadv0:                    n_per_rec:                 3070
  *** grid_quadv0:                    calc_type:                    1
  *** grid_quadv0:                    grid_written: F
  *** grid_quadv0:                    grad: T
  *** grid_quadv0:                    kske: F
  *** grid_quadv0:                    kslap: F
  *** grid_quadv0:                    do_scf: T
  *** grid_quadv0:                    fde_option:                    0
  *** grid_quadv0:                    n_per_rec:                 3070
  *** grid_quadv0:                    calc_type:                    1
  *** grid_quadv0:                    grid_written: F
  *** grid_quadv0:                    grad: T
  *** grid_quadv0:                    kske: F
  *** grid_quadv0:                    kslap: F
  *** grid_quadv0:                    do_scf: T
  *** grid_quadv0:                    fde_option:                    0
  *** grid_quadv0:                    n_per_rec:                 3070
  *** grid_quadv0:                    calc_type:                    1
  *** grid_quadv0:                    grid_written: F
  *** grid_quadv0:                    grad: T
  *** grid_quadv0:                    kske: F
  *** grid_quadv0:                    kslap: F
  *** grid_quadv0:                    do_scf: T
  *** grid_quadv0:                    fde_option:                    0
  *** grid_quadv0:                    n_per_rec:                 3070
  *** grid_quadv0:                    calc_type:                    1
  *** grid_quadv0:                    grid_written: F
  *** grid_quadv0:                    grad: T
  *** grid_quadv0:                    kske: F
  *** grid_quadv0:                    kslap: F
  *** grid_quadv0:                    do_scf: T
  *** grid_quadv0:                    fde_option:                    0
  *** grid_quadv0:                    n_per_rec:                 3070
  *** grid_quadv0:                    calc_type:                    1
  *** grid_quadv0:                    grid_written: F
  *** grid_quadv0:                    grad: T
  *** grid_quadv0:                    kske: F
  *** grid_quadv0:                    kslap: F
  *** grid_quadv0:                    do_scf: T
  *** grid_quadv0:                    fde_option:                    0
  *** grid_quadv0:                    n_per_rec:                 3070
  *** grid_quadv0:                    calc_type:                    1
  *** grid_quadv0:                    grid_written: F
  *** grid_quadv0:                    grad: T
  *** grid_quadv0:                    kske: F
  *** grid_quadv0:                    kslap: F
  *** grid_quadv0:                    do_scf: T
  *** grid_quadv0:                    fde_option:                    0
  *** grid_quadv0:                    n_per_rec:                 3070
   0: nuse=   8 avail= 12500000Mb on .
   1: nuse=   8 avail= 12500000Mb on .
   2: nuse=   8 avail= 12500000Mb on .
   3: nuse=   8 avail= 12500000Mb on .
   4: nuse=   8 avail= 12500000Mb on .
   5: nuse=   8 avail= 12500000Mb on .
   7: nuse=   8 avail= 12500000Mb on .
   6: nuse=   8 avail= 12500000Mb on .
 l_cube input   11.00

  atom type   l_cube   no. cubes   segmts   rad   sub
 ----------- -------- ----------- -------- ----- -----
        1     12.67        34         3      19     8

 Grid_pts file          = ./p.gridpts.0
 Record size in doubles =  12289        No. of grid_pts per rec  =   3070
 Max. records in memory =      6        Max. recs in file   = 126656358

 me   0 NQTOTC NQ/cube    8762     515
 me   1 NQTOTC NQ/cube    5117    1279
 me   2 NQTOTC NQ/cube    5652    2826
 me   3 NQTOTC NQ/cube    5601    2800
 me   4 NQTOTC NQ/cube    5055    2527
 me   5 NQTOTC NQ/cube    4247    1415
 me   6 NQTOTC NQ/cube    4542    2271
 me   7 NQTOTC NQ/cube    4542    2271

 XC quadr. integrated density :      15.000000 npts:    43418 nctrs:        1

    Fock_xc Build Time:          0.1s


     <<<<<<    Before call to GETVCOUL.   >>>>>>
     <<<<<< date:  May  8  time: 11:54:22 >>>>>>



     <<<<<<    End of parallel region.    >>>>>>
     <<<<<< date:  May  8  time: 11:54:22 >>>>>>

    Total Fock Matrix Build Time:          0.3s
 Etnew, Ecore, Ecoul, Exc(1), Exc(2), Totsic:   -341.10786604997861       -470.19651183653605        152.03117435467800       -22.942528568120579        0.0000000000000000        0.0000000000000000     
  delta =   -341.10786604997861     
  delta =   -341.10786604997861     
  delta =   -341.10786604997861     
  delta =   -341.10786604997861     


         Total DFT energy =     -341.107866049979
      One electron energy =     -470.196511836536
           Coulomb energy =      152.031174354678
    Exchange-Corr. energy =      -22.942528568121
 Nuclear repulsion energy =        0.000000000000

 Numeric. integr. density =       14.999999999105

  delta =   -341.10786604997861     
  delta =   -341.10786604997861     
  delta =   -341.10786604997861     
  delta =   -341.10786604997861     
     Total iterative time =      2.1s




     <<<<<<        calling diis driver    >>>>>>
     <<<<<< date:  May  8  time: 11:54:22 >>>>>>

 nhist                     1  pulay matrix 
   0.0000E+00
  -1.0000E+00   1.3187E-01


     <<<<<<         called diis driver    >>>>>>
     <<<<<< date:  May  8  time: 11:54:22 >>>>>>


 global array: fock transf[1:59,1:59],  handle: -940 

            1           2           3           4           5           6  
       ----------- ----------- ----------- ----------- ----------- -----------
   1       5.96600     0.00000     0.00000     0.00000    -0.00000     0.67606
   2       0.00000     5.96600     0.00000     0.00000    -0.00000    -0.19517
   3       0.00000     0.00000     5.96600     0.00000    -0.00000     0.21946
   4       0.00000     0.00000     0.00000     2.62925     1.26920    -0.00000
   5      -0.00000    -0.00000    -0.00000     1.26920     3.95473     0.00000
   6       0.67606    -0.19517     0.21946    -0.00000     0.00000     0.77591
   7      -0.29283    -0.40588     0.54114     0.00000    -0.00000    -0.00000
   8      -0.02244    -0.58351    -0.44981     0.00000    -0.00000    -0.00000
   9      -0.00000    -0.00000    -0.00000    -0.28334    -0.79543     0.00000
  10      -0.00000    -0.00000    -0.00000    -0.00000    -0.00000     0.00000
  11       0.00000     0.00000     0.00000    -0.76469    -0.51375    -0.00000
  12       0.00000     0.00000    -0.00000    -0.00000     0.00000     0.00000
  13       0.00000    -0.00000     0.00000     0.00000     0.00000    -0.00000
  14       0.00000    -0.00000    -0.00000     0.00000     0.00000    -0.00000
  15       0.00000     0.00000    -0.00000     0.00000     0.00000    -0.00000
  16      -0.00000     0.00000    -0.00000     0.00000    -0.00000     0.00000
  17       0.00000    -0.00000     0.00000    -0.00000     0.00000    -0.00000
  18      -0.03862    -0.03645     0.06272     0.00000    -0.00000     0.01807
  19      -0.06428     0.05011    -0.01046    -0.00000     0.00000     0.19190
  20       0.03360     0.05398     0.05206    -0.00000     0.00000    -0.08158
  21      -0.00000     0.00000     0.00000     0.00000     0.00000    -0.00000
  22       0.00000     0.00000     0.00000     0.00000    -0.00000    -0.00000
  23       0.00000     0.00000     0.00000     0.00000    -0.00000    -0.00000
  24       0.03441     0.04124     0.03679    -0.00000     0.00000    -0.22613
  25      -0.03986    -0.01150     0.05017    -0.00000     0.00000     0.13295
  26      -0.03828     0.04905    -0.01917    -0.00000     0.00000     0.38503
  27       0.00000     0.00000     0.00000     0.00000    -0.00000    -0.00000
  28      -0.00000    -0.00000     0.00000     0.00000    -0.00000     0.00000
  29       0.00000    -0.00000     0.00000    -0.00000     0.00000    -0.00000
  30      -0.00000    -0.00000     0.00000     0.00000     0.00000     0.00000
  31      -0.00000     0.00000    -0.00000     0.00000     0.00000     0.00000
  32      -0.00000     0.00000    -0.00000     0.00000     0.00000     0.00000
  33      -0.01897    -0.01498     0.02787     0.00000    -0.00000    -0.01299
  34      -0.02831     0.02255    -0.00715     0.00000    -0.00000    -0.08620
  35      -0.01413    -0.02507    -0.02309    -0.00000     0.00000    -0.03339
  36      -0.00000    -0.00000    -0.00000     0.03360     0.26271     0.00000
  37       0.01887     0.01528    -0.01070     0.00000    -0.00000     0.00182
  38      -0.01528     0.00393    -0.02134    -0.00000     0.00000    -0.00387
  39      -0.01070     0.02134     0.01159     0.00000    -0.00000    -0.00217
  40      -0.00000    -0.00000    -0.00000    -0.00000     0.00000     0.00000
  41      -0.00000    -0.00000    -0.00000    -0.00000     0.00000     0.00000
  42      -0.00000    -0.00000     0.00000    -0.00000    -0.00000     0.00000
  43       0.00000     0.00000    -0.00000    -0.00000     0.00000    -0.00000
  44       0.00000    -0.00000     0.00000     0.00000    -0.00000    -0.00000
  45       0.00000     0.00000     0.00000    -0.02636     0.13212    -0.00000
  46       0.03880     0.00226    -0.01792    -0.00000     0.00000    -0.05087
  47       0.00188     0.04173     0.00932     0.00000    -0.00000     0.01124
  48       0.01797    -0.00923     0.03773     0.00000    -0.00000    -0.05174
  49      -0.00000    -0.00000    -0.00000    -0.00000     0.00000     0.00000
  50      -0.00000    -0.00000    -0.00000    -0.00000     0.00000     0.00000
  51      -0.00000    -0.00000    -0.00000    -0.07134     0.06766     0.00000
  52       0.06473    -0.09182    -0.00746     0.00000    -0.00000     0.02667
  53      -0.02451    -0.02595     0.10678    -0.00000     0.00000     0.00530
  54       0.08880     0.05977     0.03491    -0.00000     0.00000     0.02489
  55      -0.00000    -0.00000    -0.00000    -0.05367    -0.18905     0.00000
  56      -0.00010     0.01531     0.00423     0.00000    -0.00000    -0.00128
  57      -0.00746     0.00369    -0.01353    -0.00000     0.00000    -0.00525
  58       0.01403     0.00207    -0.00716    -0.00000     0.00000     0.00451
  59      -0.00000    -0.00000    -0.00000     0.03489     0.08191     0.00000

            7           8           9          10          11          12  
       ----------- ----------- ----------- ----------- ----------- -----------
   1      -0.29283    -0.02244    -0.00000    -0.00000     0.00000     0.00000
   2      -0.40588    -0.58351    -0.00000    -0.00000     0.00000     0.00000
   3       0.54114    -0.44981    -0.00000    -0.00000     0.00000    -0.00000
   4       0.00000     0.00000    -0.28334    -0.00000    -0.76469    -0.00000
   5      -0.00000    -0.00000    -0.79543    -0.00000    -0.51375     0.00000
   6      -0.00000    -0.00000     0.00000     0.00000    -0.00000     0.00000
   7       0.77591     0.00000    -0.00000     0.00000     0.00000     0.00000
   8       0.00000     0.77591    -0.00000     0.00000     0.00000    -0.00000
   9      -0.00000    -0.00000     0.62949    -0.00000     0.83001    -0.00000
  10       0.00000     0.00000    -0.00000     1.36384     0.00000     0.00000
  11       0.00000     0.00000     0.83001     0.00000     3.70306    -0.00000
  12       0.00000    -0.00000    -0.00000     0.00000    -0.00000     1.36384
  13      -0.00000     0.00000    -0.00000     0.00000     0.00000    -0.00000
  14       0.00000    -0.00000    -0.00000    -0.00000    -0.00000     0.00000
  15       0.00000    -0.00000    -0.00000     0.00000    -0.00000     0.00000
  16       0.00000    -0.00000     0.00000    -0.00000    -0.00000     0.00000
  17      -0.00000    -0.00000    -0.00000     0.00000    -0.00000    -0.00000
  18      -0.20746     0.02099    -0.00000    -0.00000     0.00000     0.00000
  19       0.02479     0.07980     0.00000     0.00000    -0.00000    -0.00000
  20       0.01235     0.19235     0.00000     0.00000    -0.00000     0.00000
  21      -0.00000    -0.00000     0.00000    -0.46291    -0.00000     0.00000
  22       0.00000     0.00000    -0.00000    -0.00000     0.00000     0.00000
  23       0.00000     0.00000    -0.00000     0.00000     0.00000     0.00000
  24       0.06703     0.40178     0.00000    -0.00000    -0.00000     0.00000
  25      -0.42223     0.14526     0.00000    -0.00000    -0.00000     0.00000
  26       0.18516     0.18581     0.00000    -0.00000    -0.00000    -0.00000
  27       0.00000    -0.00000     0.00000    -0.00000     0.00000    -0.20191
  28       0.00000     0.00000     0.00000    -0.00000    -0.00000    -0.39244
  29       0.00000    -0.00000     0.00000     0.00000     0.00000    -0.13967
  30      -0.00000     0.00000     0.00000    -0.00000    -0.00000     0.00000
  31       0.00000    -0.00000    -0.00000    -0.00000    -0.00000    -0.00000
  32       0.00000     0.00000    -0.00000     0.00000    -0.00000     0.00000
  33       0.09172    -0.01157    -0.00000     0.00000     0.00000    -0.00000
  34      -0.01624    -0.03194    -0.00000     0.00000     0.00000     0.00000
  35       0.00624     0.08695     0.00000    -0.00000    -0.00000     0.00000
  36      -0.00000    -0.00000    -0.27892     0.00000     0.06732    -0.00000
  37      -0.00429    -0.00111    -0.00000    -0.00000     0.00000     0.00000
  38      -0.00212     0.00187     0.00000    -0.00000    -0.00000     0.00000
  39       0.00018    -0.00427    -0.00000    -0.00000     0.00000    -0.00000
  40      -0.00000    -0.00000     0.00000    -0.00000    -0.00000     0.00000
  41      -0.00000    -0.00000     0.00000    -0.00000    -0.00000     0.00000
  42      -0.00000     0.00000     0.00000    -0.00000     0.00000    -0.00000
  43       0.00000    -0.00000     0.00000    -0.00000    -0.00000     0.00000
  44      -0.00000    -0.00000     0.00000     0.00000     0.00000    -0.00000
  45       0.00000     0.00000    -0.01437     0.00000     1.52050     0.00000
  46       0.05115    -0.01367     0.00000    -0.00000    -0.00000     0.00000
  47       0.02896     0.06653    -0.00000     0.00000     0.00000     0.00000
  48      -0.04400     0.02790    -0.00000    -0.00000     0.00000    -0.00000
  49      -0.00000    -0.00000     0.00000     0.00000    -0.00000     0.00000
  50      -0.00000    -0.00000     0.00000     0.00000    -0.00000    -0.00000
  51      -0.00000    -0.00000    -0.02767    -0.00000     0.76198    -0.00000
  52       0.00634     0.02464    -0.00000    -0.00000     0.00000     0.00000
  53       0.03353    -0.01436     0.00000     0.00000    -0.00000     0.00000
  54      -0.01393    -0.02335     0.00000     0.00000    -0.00000    -0.00000
  55      -0.00000    -0.00000     0.06305    -0.00000    -0.28800     0.00000
  56      -0.00234    -0.00651    -0.00000     0.00000     0.00000     0.00000
  57      -0.00399     0.00246     0.00000     0.00000    -0.00000     0.00000
  58      -0.00530     0.00102     0.00000    -0.00000    -0.00000     0.00000
  59      -0.00000    -0.00000    -0.04658    -0.00000     0.02194    -0.00000

           13          14          15          16          17          18  
       ----------- ----------- ----------- ----------- ----------- -----------
   1       0.00000     0.00000     0.00000    -0.00000     0.00000    -0.03862
   2      -0.00000    -0.00000     0.00000     0.00000    -0.00000    -0.03645
   3       0.00000    -0.00000    -0.00000    -0.00000     0.00000     0.06272
   4       0.00000     0.00000     0.00000     0.00000    -0.00000     0.00000
   5       0.00000     0.00000     0.00000    -0.00000     0.00000    -0.00000
   6      -0.00000    -0.00000    -0.00000     0.00000    -0.00000     0.01807
   7      -0.00000     0.00000     0.00000     0.00000    -0.00000    -0.20746
   8       0.00000    -0.00000    -0.00000    -0.00000    -0.00000     0.02099
   9      -0.00000    -0.00000    -0.00000     0.00000    -0.00000    -0.00000
  10       0.00000    -0.00000     0.00000    -0.00000     0.00000    -0.00000
  11       0.00000    -0.00000    -0.00000    -0.00000    -0.00000     0.00000
  12      -0.00000     0.00000     0.00000     0.00000    -0.00000     0.00000
  13       1.36384    -0.00000    -0.00000    -0.00000     0.00000    -0.00000
  14      -0.00000     1.36384     0.00000    -0.00000     0.00000     0.00000
  15      -0.00000     0.00000     1.08554     0.00000     0.00000     0.00000
  16      -0.00000    -0.00000     0.00000     1.08554    -0.00000     0.00000
  17       0.00000     0.00000     0.00000    -0.00000     1.08554    -0.00000
  18      -0.00000     0.00000     0.00000     0.00000    -0.00000     1.37974
  19       0.00000     0.00000     0.00000    -0.00000     0.00000    -0.00000
  20      -0.00000    -0.00000    -0.00000     0.00000    -0.00000    -0.00000
  21      -0.00000     0.00000    -0.00000     0.00000     0.00000     0.00000
  22       0.00000     0.00000     0.00000     0.00000    -0.00000     0.00000
  23       0.00000    -0.00000     0.00000    -0.00000     0.00000     0.00000
  24      -0.00000    -0.00000    -0.00000     0.00000    -0.00000    -0.01590
  25      -0.00000     0.00000     0.00000     0.00000     0.00000     0.15475
  26       0.00000     0.00000     0.00000    -0.00000     0.00000    -0.04583
  27      -0.38122    -0.16790     0.00000     0.00000     0.00000     0.00000
  28       0.11153     0.21872     0.00000     0.00000    -0.00000     0.00000
  29       0.23774    -0.37183     0.00000     0.00000     0.00000     0.00000
  30       0.00000     0.00000     0.37248     0.25520     0.08706    -0.00000
  31      -0.00000    -0.00000    -0.19062     0.14421     0.39283     0.00000
  32      -0.00000    -0.00000     0.19071    -0.35429     0.22261     0.00000
  33       0.00000    -0.00000    -0.00000    -0.00000     0.00000     0.45240
  34      -0.00000    -0.00000    -0.00000     0.00000    -0.00000    -0.02647
  35      -0.00000    -0.00000    -0.00000     0.00000    -0.00000     0.00171
  36      -0.00000    -0.00000     0.00000    -0.00000    -0.00000    -0.00000
  37      -0.00000     0.00000     0.00000     0.00000     0.00000     0.03020
  38      -0.00000    -0.00000     0.00000     0.00000    -0.00000     0.01376
  39      -0.00000    -0.00000    -0.00000     0.00000    -0.00000    -0.00559
  40      -0.00000     0.00000     0.00000    -0.00000    -0.00000    -0.00000
  41       0.00000    -0.00000     0.00000     0.00000    -0.00000    -0.00000
  42      -0.00000    -0.00000     0.00582    -0.02221    -0.02505    -0.00000
  43      -0.00000     0.00000     0.03152     0.01221    -0.00350     0.00000
  44       0.00000     0.00000     0.01129    -0.02263     0.02269    -0.00000
  45       0.00000    -0.00000    -0.00000    -0.00000    -0.00000     0.00000
  46      -0.00000     0.00000     0.00000     0.00000     0.00000    -0.07095
  47      -0.00000    -0.00000     0.00000     0.00000    -0.00000    -0.02647
  48       0.00000     0.00000    -0.00000    -0.00000     0.00000     0.05270
  49       0.00000    -0.00000     0.00000    -0.00000     0.00000    -0.00000
  50      -0.00000     0.00000     0.00000    -0.00000    -0.00000    -0.00000
  51      -0.00000    -0.00000     0.00000     0.00000    -0.00000    -0.00000
  52      -0.00000    -0.00000    -0.00000     0.00000    -0.00000     0.00929
  53      -0.00000     0.00000     0.00000     0.00000    -0.00000     0.21027
  54      -0.00000    -0.00000    -0.00000     0.00000    -0.00000    -0.08368
  55       0.00000     0.00000    -0.00000     0.00000     0.00000    -0.00000
  56      -0.00000    -0.00000     0.00000     0.00000    -0.00000    -0.00920
  57      -0.00000    -0.00000     0.00000     0.00000    -0.00000    -0.02213
  58      -0.00000     0.00000     0.00000     0.00000     0.00000    -0.03394
  59      -0.00000     0.00000    -0.00000     0.00000     0.00000    -0.00000

           19          20          21          22          23          24  
       ----------- ----------- ----------- ----------- ----------- -----------
   1      -0.06428     0.03360    -0.00000     0.00000     0.00000     0.03441
   2       0.05011     0.05398     0.00000     0.00000     0.00000     0.04124
   3      -0.01046     0.05206     0.00000     0.00000     0.00000     0.03679
   4      -0.00000    -0.00000     0.00000     0.00000     0.00000    -0.00000
   5       0.00000     0.00000     0.00000    -0.00000    -0.00000     0.00000
   6       0.19190    -0.08158    -0.00000    -0.00000    -0.00000    -0.22613
   7       0.02479     0.01235    -0.00000     0.00000     0.00000     0.06703
   8       0.07980     0.19235    -0.00000     0.00000     0.00000     0.40178
   9       0.00000     0.00000     0.00000    -0.00000    -0.00000     0.00000
  10       0.00000     0.00000    -0.46291    -0.00000     0.00000    -0.00000
  11      -0.00000    -0.00000    -0.00000     0.00000     0.00000    -0.00000
  12      -0.00000     0.00000     0.00000     0.00000     0.00000     0.00000
  13       0.00000    -0.00000    -0.00000     0.00000     0.00000    -0.00000
  14       0.00000    -0.00000     0.00000     0.00000    -0.00000    -0.00000
  15       0.00000    -0.00000    -0.00000     0.00000     0.00000    -0.00000
  16      -0.00000     0.00000     0.00000     0.00000    -0.00000     0.00000
  17       0.00000    -0.00000     0.00000    -0.00000     0.00000    -0.00000
  18      -0.00000    -0.00000     0.00000     0.00000     0.00000    -0.01590
  19       1.37974     0.00000     0.00000    -0.00000    -0.00000    -0.01609
  20       0.00000     1.37974     0.00000    -0.00000    -0.00000     0.16059
  21       0.00000     0.00000     0.84099     0.00000    -0.00000     0.00000
  22      -0.00000    -0.00000     0.00000     1.08554     0.00000    -0.00000
  23      -0.00000    -0.00000    -0.00000     0.00000     1.08554    -0.00000
  24      -0.01609     0.16059     0.00000    -0.00000    -0.00000     1.61261
  25       0.04430     0.01976     0.00000    -0.00000    -0.00000     0.00000
  26       0.15517     0.01101     0.00000    -0.00000    -0.00000     0.00000
  27       0.00000    -0.00000    -0.00000     0.00000     0.00000    -0.00000
  28      -0.00000     0.00000    -0.00000    -0.00000     0.00000     0.00000
  29       0.00000    -0.00000     0.00000    -0.00000    -0.00000    -0.00000
  30      -0.00000     0.00000    -0.00000    -0.00000    -0.00000     0.00000
  31      -0.00000     0.00000    -0.00000     0.00000     0.00000     0.00000
  32      -0.00000     0.00000     0.00000    -0.00000     0.00000     0.00000
  33       0.02651     0.00078     0.00000     0.00000     0.00000     0.00631
  34       0.45212    -0.01598     0.00000     0.00000     0.00000     0.00793
  35      -0.01591    -0.45289    -0.00000    -0.00000    -0.00000     0.06109
  36       0.00000     0.00000    -0.00000    -0.00000    -0.00000     0.00000
  37       0.00518    -0.01392    -0.00000     0.00000     0.00000     0.22867
  38      -0.02164     0.02179     0.00000    -0.00000    -0.00000    -0.29655
  39      -0.02525    -0.02154    -0.00000     0.00000     0.00000     0.24218
  40       0.00000     0.00000     0.00000     0.21871     0.40449     0.00000
  41       0.00000     0.00000     0.00000     0.40449    -0.21871     0.00000
  42      -0.00000     0.00000    -0.00000    -0.00000    -0.00000     0.00000
  43       0.00000    -0.00000    -0.00000    -0.00000    -0.00000    -0.00000
  44       0.00000    -0.00000    -0.00000    -0.00000    -0.00000    -0.00000
  45      -0.00000    -0.00000    -0.00000     0.00000     0.00000    -0.00000
  46      -0.05755     0.01292    -0.00000    -0.00000    -0.00000     0.15443
  47       0.04914     0.07347     0.00000     0.00000     0.00000     0.42751
  48      -0.05279     0.05430    -0.00000     0.00000     0.00000     0.32658
  49       0.00000     0.00000    -0.00000    -0.01065     0.03227     0.00000
  50       0.00000     0.00000     0.00000    -0.03227    -0.01065     0.00000
  51       0.00000     0.00000     0.00000    -0.00000    -0.00000     0.00000
  52      -0.21260    -0.07758    -0.00000     0.00000     0.00000    -0.16024
  53      -0.02060     0.08164     0.00000    -0.00000    -0.00000     0.17616
  54      -0.07536     0.19652     0.00000    -0.00000    -0.00000     0.59486
  55       0.00000     0.00000    -0.00000    -0.00000    -0.00000     0.00000
  56       0.02321     0.03321    -0.00000     0.00000     0.00000    -0.03213
  57       0.02565    -0.02406     0.00000    -0.00000    -0.00000     0.02470
  58      -0.02301     0.00668    -0.00000    -0.00000    -0.00000    -0.01248
  59       0.00000     0.00000     0.00000    -0.00000    -0.00000     0.00000

           25          26          27          28          29          30  
       ----------- ----------- ----------- ----------- ----------- -----------
   1      -0.03986    -0.03828     0.00000    -0.00000     0.00000    -0.00000
   2      -0.01150     0.04905     0.00000    -0.00000    -0.00000    -0.00000
   3       0.05017    -0.01917     0.00000     0.00000     0.00000     0.00000
   4      -0.00000    -0.00000     0.00000     0.00000    -0.00000     0.00000
   5       0.00000     0.00000    -0.00000    -0.00000     0.00000     0.00000
   6       0.13295     0.38503    -0.00000     0.00000    -0.00000     0.00000
   7      -0.42223     0.18516     0.00000     0.00000     0.00000    -0.00000
   8       0.14526     0.18581    -0.00000     0.00000    -0.00000     0.00000
   9       0.00000     0.00000     0.00000     0.00000     0.00000     0.00000
  10      -0.00000    -0.00000    -0.00000    -0.00000     0.00000    -0.00000
  11      -0.00000    -0.00000     0.00000    -0.00000     0.00000    -0.00000
  12       0.00000    -0.00000    -0.20191    -0.39244    -0.13967     0.00000
  13      -0.00000     0.00000    -0.38122     0.11153     0.23774     0.00000
  14       0.00000     0.00000    -0.16790     0.21872    -0.37183     0.00000
  15       0.00000     0.00000     0.00000     0.00000     0.00000     0.37248
  16       0.00000    -0.00000     0.00000     0.00000     0.00000     0.25520
  17       0.00000     0.00000     0.00000    -0.00000     0.00000     0.08706
  18       0.15475    -0.04583     0.00000     0.00000     0.00000    -0.00000
  19       0.04430     0.15517     0.00000    -0.00000     0.00000    -0.00000
  20       0.01976     0.01101    -0.00000     0.00000    -0.00000     0.00000
  21       0.00000     0.00000    -0.00000    -0.00000     0.00000    -0.00000
  22      -0.00000    -0.00000     0.00000    -0.00000    -0.00000    -0.00000
  23      -0.00000    -0.00000     0.00000     0.00000    -0.00000    -0.00000
  24       0.00000     0.00000    -0.00000     0.00000    -0.00000     0.00000
  25       1.61261     0.00000     0.00000     0.00000     0.00000    -0.00000
  26       0.00000     1.61261    -0.00000    -0.00000     0.00000     0.00000
  27       0.00000    -0.00000     0.84099     0.00000     0.00000    -0.00000
  28       0.00000    -0.00000     0.00000     0.84099     0.00000    -0.00000
  29       0.00000     0.00000     0.00000     0.00000     0.84099    -0.00000
  30      -0.00000     0.00000    -0.00000    -0.00000    -0.00000     0.69109
  31       0.00000    -0.00000     0.00000     0.00000    -0.00000    -0.00000
  32      -0.00000    -0.00000    -0.00000     0.00000    -0.00000     0.00000
  33      -0.05999     0.01399    -0.00000    -0.00000    -0.00000     0.00000
  34      -0.01316    -0.05998    -0.00000     0.00000    -0.00000     0.00000
  35       0.00791     0.00635    -0.00000     0.00000    -0.00000     0.00000
  36       0.00000     0.00000     0.00000    -0.00000    -0.00000    -0.00000
  37      -0.37816     0.05986     0.00000     0.00000     0.00000    -0.00000
  38      -0.13083     0.30631    -0.00000     0.00000    -0.00000    -0.00000
  39       0.19687     0.31855    -0.00000     0.00000    -0.00000     0.00000
  40       0.00000     0.00000     0.00000     0.00000     0.00000    -0.00000
  41       0.00000     0.00000     0.00000     0.00000    -0.00000    -0.00000
  42      -0.00000    -0.00000     0.00000     0.00000    -0.00000    -0.06199
  43       0.00000    -0.00000     0.00000     0.00000     0.00000     0.15880
  44       0.00000     0.00000     0.00000    -0.00000     0.00000     0.00441
  45      -0.00000    -0.00000    -0.00000    -0.00000     0.00000    -0.00000
  46      -0.49653    -0.20708     0.00000     0.00000     0.00000    -0.00000
  47      -0.01752     0.36082    -0.00000     0.00000    -0.00000    -0.00000
  48       0.25773    -0.37442     0.00000     0.00000     0.00000     0.00000
  49       0.00000     0.00000     0.00000     0.00000    -0.00000     0.00000
  50       0.00000     0.00000    -0.00000    -0.00000     0.00000     0.00000
  51       0.00000     0.00000    -0.00000    -0.00000    -0.00000     0.00000
  52      -0.16595    -0.59779     0.00000     0.00000     0.00000     0.00000
  53       0.57983    -0.20818     0.00000     0.00000     0.00000    -0.00000
  54      -0.21641    -0.09938    -0.00000     0.00000    -0.00000     0.00000
  55       0.00000     0.00000     0.00000     0.00000     0.00000    -0.00000
  56      -0.00164    -0.02762     0.00000     0.00000    -0.00000    -0.00000
  57       0.01739    -0.02976    -0.00000     0.00000    -0.00000    -0.00000
  58       0.03864     0.01223     0.00000     0.00000     0.00000    -0.00000
  59       0.00000     0.00000     0.00000    -0.00000    -0.00000     0.00000

           31          32          33          34          35          36  
       ----------- ----------- ----------- ----------- ----------- -----------
   1      -0.00000    -0.00000    -0.01897    -0.02831    -0.01413    -0.00000
   2       0.00000     0.00000    -0.01498     0.02255    -0.02507    -0.00000
   3      -0.00000    -0.00000     0.02787    -0.00715    -0.02309    -0.00000
   4       0.00000     0.00000     0.00000     0.00000    -0.00000     0.03360
   5       0.00000     0.00000    -0.00000    -0.00000     0.00000     0.26271
   6       0.00000     0.00000    -0.01299    -0.08620    -0.03339     0.00000
   7       0.00000     0.00000     0.09172    -0.01624     0.00624    -0.00000
   8      -0.00000     0.00000    -0.01157    -0.03194     0.08695    -0.00000
   9      -0.00000    -0.00000    -0.00000    -0.00000     0.00000    -0.27892
  10      -0.00000     0.00000     0.00000     0.00000    -0.00000     0.00000
  11      -0.00000    -0.00000     0.00000     0.00000    -0.00000     0.06732
  12      -0.00000     0.00000    -0.00000     0.00000     0.00000    -0.00000
  13      -0.00000    -0.00000     0.00000    -0.00000    -0.00000    -0.00000
  14      -0.00000    -0.00000    -0.00000    -0.00000    -0.00000    -0.00000
  15      -0.19062     0.19071    -0.00000    -0.00000    -0.00000     0.00000
  16       0.14421    -0.35429    -0.00000     0.00000     0.00000    -0.00000
  17       0.39283     0.22261     0.00000    -0.00000    -0.00000    -0.00000
  18       0.00000     0.00000     0.45240    -0.02647     0.00171    -0.00000
  19      -0.00000    -0.00000     0.02651     0.45212    -0.01591     0.00000
  20       0.00000     0.00000     0.00078    -0.01598    -0.45289     0.00000
  21      -0.00000     0.00000     0.00000     0.00000    -0.00000    -0.00000
  22       0.00000    -0.00000     0.00000     0.00000    -0.00000    -0.00000
  23       0.00000     0.00000     0.00000     0.00000    -0.00000    -0.00000
  24       0.00000     0.00000     0.00631     0.00793     0.06109     0.00000
  25       0.00000    -0.00000    -0.05999    -0.01316     0.00791     0.00000
  26      -0.00000    -0.00000     0.01399    -0.05998     0.00635     0.00000
  27       0.00000    -0.00000    -0.00000    -0.00000    -0.00000     0.00000
  28       0.00000     0.00000    -0.00000     0.00000     0.00000    -0.00000
  29      -0.00000    -0.00000    -0.00000    -0.00000    -0.00000    -0.00000
  30      -0.00000     0.00000     0.00000     0.00000     0.00000    -0.00000
  31       0.69109     0.00000    -0.00000     0.00000     0.00000    -0.00000
  32       0.00000     0.69109    -0.00000     0.00000     0.00000     0.00000
  33      -0.00000    -0.00000     0.73582     0.00000    -0.00000    -0.00000
  34       0.00000     0.00000     0.00000     0.73582    -0.00000    -0.00000
  35       0.00000     0.00000    -0.00000    -0.00000     0.73582     0.00000
  36      -0.00000     0.00000    -0.00000    -0.00000     0.00000     0.48256
  37       0.00000    -0.00000     0.22042     0.02825     0.10027    -0.00000
  38       0.00000     0.00000     0.09060    -0.16779    -0.15191     0.00000
  39       0.00000     0.00000    -0.05141    -0.17461     0.16220    -0.00000
  40      -0.00000     0.00000    -0.00000    -0.00000     0.00000     0.00000
  41       0.00000    -0.00000    -0.00000    -0.00000     0.00000     0.00000
  42      -0.15446     0.03714     0.00000     0.00000     0.00000    -0.00000
  43      -0.06135     0.00988    -0.00000    -0.00000    -0.00000    -0.00000
  44       0.03818     0.16614     0.00000    -0.00000    -0.00000    -0.00000
  45      -0.00000    -0.00000     0.00000     0.00000    -0.00000     1.76846
  46      -0.00000    -0.00000    -0.02735    -0.01981    -0.00412     0.00000
  47       0.00000     0.00000    -0.00864     0.01769    -0.02775    -0.00000
  48      -0.00000    -0.00000     0.01830    -0.02126    -0.01925    -0.00000
  49       0.00000    -0.00000    -0.00000    -0.00000     0.00000     0.00000
  50       0.00000    -0.00000    -0.00000    -0.00000     0.00000     0.00000
  51      -0.00000     0.00000    -0.00000    -0.00000     0.00000     0.92691
  52       0.00000     0.00000    -0.00406    -0.25836     0.10465    -0.00000
  53       0.00000     0.00000     0.25705    -0.04395    -0.09855     0.00000
  54       0.00000     0.00000    -0.10783    -0.09506    -0.23886     0.00000
  55      -0.00000     0.00000    -0.00000    -0.00000     0.00000    -0.75041
  56       0.00000     0.00000    -0.02016     0.05844    -0.08831    -0.00000
  57       0.00000     0.00000    -0.05353     0.07194     0.05983     0.00000
  58      -0.00000    -0.00000    -0.09137    -0.05504    -0.01557     0.00000
  59      -0.00000     0.00000    -0.00000    -0.00000     0.00000     0.17424

           37          38          39          40          41          42  
       ----------- ----------- ----------- ----------- ----------- -----------
   1       0.01887    -0.01528    -0.01070    -0.00000    -0.00000    -0.00000
   2       0.01528     0.00393     0.02134    -0.00000    -0.00000    -0.00000
   3      -0.01070    -0.02134     0.01159    -0.00000    -0.00000     0.00000
   4       0.00000    -0.00000     0.00000    -0.00000    -0.00000    -0.00000
   5      -0.00000     0.00000    -0.00000     0.00000     0.00000    -0.00000
   6       0.00182    -0.00387    -0.00217     0.00000     0.00000     0.00000
   7      -0.00429    -0.00212     0.00018    -0.00000    -0.00000    -0.00000
   8      -0.00111     0.00187    -0.00427    -0.00000    -0.00000     0.00000
   9      -0.00000     0.00000    -0.00000     0.00000     0.00000     0.00000
  10      -0.00000    -0.00000    -0.00000    -0.00000    -0.00000    -0.00000
  11       0.00000    -0.00000     0.00000    -0.00000    -0.00000     0.00000
  12       0.00000     0.00000    -0.00000     0.00000     0.00000    -0.00000
  13      -0.00000    -0.00000    -0.00000    -0.00000     0.00000    -0.00000
  14       0.00000    -0.00000    -0.00000     0.00000    -0.00000    -0.00000
  15       0.00000     0.00000    -0.00000     0.00000     0.00000     0.00582
  16       0.00000     0.00000     0.00000    -0.00000     0.00000    -0.02221
  17       0.00000    -0.00000    -0.00000    -0.00000    -0.00000    -0.02505
  18       0.03020     0.01376    -0.00559    -0.00000    -0.00000    -0.00000
  19       0.00518    -0.02164    -0.02525     0.00000     0.00000    -0.00000
  20      -0.01392     0.02179    -0.02154     0.00000     0.00000     0.00000
  21      -0.00000     0.00000    -0.00000     0.00000     0.00000    -0.00000
  22       0.00000    -0.00000     0.00000     0.21871     0.40449    -0.00000
  23       0.00000    -0.00000     0.00000     0.40449    -0.21871    -0.00000
  24       0.22867    -0.29655     0.24218     0.00000     0.00000     0.00000
  25      -0.37816    -0.13083     0.19687     0.00000     0.00000    -0.00000
  26       0.05986     0.30631     0.31855     0.00000     0.00000    -0.00000
  27       0.00000    -0.00000    -0.00000     0.00000     0.00000     0.00000
  28       0.00000     0.00000     0.00000     0.00000     0.00000     0.00000
  29       0.00000    -0.00000    -0.00000     0.00000    -0.00000    -0.00000
  30      -0.00000    -0.00000     0.00000    -0.00000    -0.00000    -0.06199
  31       0.00000     0.00000     0.00000    -0.00000     0.00000    -0.15446
  32      -0.00000     0.00000     0.00000     0.00000    -0.00000     0.03714
  33       0.22042     0.09060    -0.05141    -0.00000    -0.00000     0.00000
  34       0.02825    -0.16779    -0.17461    -0.00000    -0.00000     0.00000
  35       0.10027    -0.15191     0.16220     0.00000     0.00000     0.00000
  36      -0.00000     0.00000    -0.00000     0.00000     0.00000    -0.00000
  37       0.51191    -0.00000     0.00000    -0.00000    -0.00000    -0.00000
  38      -0.00000     0.51191    -0.00000     0.00000     0.00000     0.00000
  39       0.00000    -0.00000     0.51191    -0.00000    -0.00000     0.00000
  40      -0.00000     0.00000    -0.00000     0.69109     0.00000    -0.00000
  41      -0.00000     0.00000    -0.00000     0.00000     0.69109     0.00000
  42      -0.00000     0.00000     0.00000    -0.00000     0.00000     0.23439
  43       0.00000     0.00000    -0.00000     0.00000     0.00000    -0.00000
  44       0.00000    -0.00000    -0.00000    -0.00000    -0.00000    -0.00000
  45       0.00000    -0.00000     0.00000    -0.00000    -0.00000     0.00000
  46       0.37481    -0.07875    -0.22472     0.00000     0.00000    -0.00000
  47       0.22413    -0.02484     0.38253    -0.00000    -0.00000    -0.00000
  48      -0.08041    -0.43630     0.01878    -0.00000    -0.00000    -0.00000
[...]
  46       0.00000    -0.00000     0.00022    -0.00000    -0.00000     0.40499
  47       0.01163     0.55016     0.00000     0.40438     0.02221     0.00000
  48      -2.23164     0.76144     0.00022    -0.00000    -0.00000     0.40499
  49      -0.00000    -0.00002     0.00000     0.40438     0.02221     0.00000
  50       0.00001     0.00003     0.00000     0.15611    -2.84171    -0.00001
  51      -1.13560     0.38747     0.00042     0.00000     0.00001    -2.84599
  52       0.00592     0.27993     0.00000    -2.84171    -0.15611    -0.00000
  53      -0.39708    -1.10403     0.00000     0.15611    -2.84171    -0.00001
  54      -0.00000     0.00000     0.00000    -0.00000    -0.00000     0.00000
  55       0.39705     1.10394     0.00000     0.15611    -2.84171    -0.00001
  56      -0.00000     0.00000     0.00042     0.00000     0.00001    -2.84599
  57      -0.00592    -0.27996     0.00000    -2.84171    -0.15611    -0.00000
  58       1.13560    -0.38747     0.00042     0.00000     0.00001    -2.84599
  59       0.00000     0.00001     0.00000    -2.84171    -0.15611    -0.00000

           55          56          57          58          59  
       ----------- ----------- ----------- ----------- -----------
   1       1.32250     1.00585    -0.00000     0.00000     0.00009
   2       9.26287    10.01025    -0.00000     0.00000     0.00087
   3      12.41342    18.53634    -0.00000     0.00000     0.00157
   4      -6.33947    -6.69843     0.00000    -0.00000    -0.00066
   5       3.13620    19.69009    -0.00000     0.00000     0.00180
   6      -3.25010     2.29048    -0.00000     0.00000     0.00022
   7      -0.00000    -0.00000     3.44912    18.05783    -0.00194
   8      -0.00023    -0.00142    -0.00158     0.00227    18.38428
   9       0.00000     0.00000    18.05783    -3.44912     0.00198
  10      -0.00000    -0.00000     7.83740    41.03265    -0.00440
  11      -0.00052    -0.00323    -0.00359     0.00517    41.77443
  12       0.00000     0.00000    41.03265    -7.83740     0.00449
  13       0.00000     0.00000    -2.47160   -12.94004     0.00139
  14       0.00016     0.00103     0.00113    -0.00163   -13.17397
  15      -0.00000    -0.00000   -12.94004     2.47160    -0.00142
  16      -0.00000    -0.00000     2.04585    10.71103    -0.00115
  17      -0.00013    -0.00098    -0.00094     0.00135    10.90466
  18       0.00000     0.00000    10.71103    -2.04585     0.00117
  19       0.00000     0.00000    -0.10776    -0.56418     0.00006
  20       0.00001     0.00006     0.00005    -0.00007    -0.57437
  21      -0.00000    -0.00000    -0.56418     0.10776    -0.00006
  22      -2.65875    -8.51735     0.00000    -0.00000    -0.00077
  23      -0.00000     0.00000    -0.00000    -0.00000     0.00000
  24       0.00000     0.00000    -0.00000     0.00000    -0.00000
  25      -2.65875    -8.51735     0.00000    -0.00000    -0.00077
  26       0.00000     0.00000    -0.00000     0.00000    -0.00000
  27      -2.65875    -8.51735     0.00000    -0.00000    -0.00077
  28      -2.37882    -7.44605     0.00000    -0.00000    -0.00062
  29       0.00000    -0.00000     0.00000     0.00000    -0.00000
  30      -0.00000    -0.00000     0.00000    -0.00000     0.00000
  31      -2.37882    -7.44605     0.00000    -0.00000    -0.00062
  32      -0.00000    -0.00000     0.00000    -0.00000     0.00000
  33      -2.37882    -7.44605     0.00000    -0.00000    -0.00062
  34       1.30498    -1.82888     0.00000    -0.00000    -0.00017
  35      -0.00000    -0.00000     0.00000     0.00000    -0.00000
  36      -0.00000    -0.00000     0.00000    -0.00000     0.00000
  37       1.30498    -1.82888     0.00000    -0.00000    -0.00017
  38      -0.00000    -0.00000     0.00000    -0.00000     0.00000
  39       1.30498    -1.82888     0.00000    -0.00000    -0.00017
  40       0.00000     0.00000    -4.07865   -21.35374     0.00229
  41       0.00027     0.00170     0.00187    -0.00269   -21.73977
  42      -0.00000    -0.00000   -21.35374     4.07865    -0.00234
  43       0.00000     0.00000    -4.07865   -21.35374     0.00229
  44      -0.00000    -0.00000     0.00000     0.00000    -0.00000
  45       0.00000     0.00000    -4.07865   -21.35374     0.00229
  46       0.00027     0.00170     0.00187    -0.00269   -21.73977
  47      -0.00000    -0.00000   -21.35374     4.07865    -0.00234
  48       0.00027     0.00170     0.00187    -0.00269   -21.73977
  49      -0.00000    -0.00000   -21.35374     4.07865    -0.00234
  50       0.00000     0.00000    -1.51762    -7.94550     0.00085
  51       0.00010     0.00070     0.00070    -0.00100    -8.08914
  52      -0.00000    -0.00000    -7.94550     1.51762    -0.00087
  53       0.00000     0.00000    -1.51762    -7.94550     0.00085
  54       0.00000     0.00000     0.00000    -0.00000     0.00000
  55       0.00000     0.00000    -1.51762    -7.94550     0.00085
  56       0.00010     0.00070     0.00070    -0.00100    -8.08914
  57      -0.00000    -0.00000    -7.94550     1.51762    -0.00087
  58       0.00010     0.00070     0.00070    -0.00100    -8.08914
  59      -0.00000    -0.00000    -7.94550     1.51762    -0.00087
  int_init: cando_txs set to always be  F
                                NWChem TDDFT Module
                                -------------------


            General Information
            -------------------
           No. of orbitals :     118
            Alpha orbitals :      59
             Beta orbitals :      59
        Alpha frozen cores :       0
         Beta frozen cores :       0
     Alpha frozen virtuals :       0
      Beta frozen virtuals :       0
         Spin multiplicity :       4
    Number of AO functions :      59
        Use of symmetry is : off
      Symmetry adaption is : off
         Schwarz screening :  0.10D-07

              XC Information
              --------------
              Hartree-Fock (Exact) Exchange   1.00          
              LC-wPBE(h)Exchange Functional   1.00          
     Perdew 1991 LDA Correlation Functional   1.00 local    
    PerdewBurkeErnz. Correlation Functional   1.00 non-local
           Alpha           :  0.00
           Beta            :  1.00
           Gamma           :  0.32

             TDDFT Information
             -----------------
          Calculation type : TDDFT             
         Wavefunction type : Unrestricted
          No. of electrons :      15
           Alpha electrons :       9
            Beta electrons :       6
              No. of roots :       5
          Max subspacesize :    5000
            Max iterations :     100
               Target root :       1
           Target symmetry : none
      Symmetry restriction : off
                 Algorithm : Optimal
        Davidson threshold :  0.10D-03

            Memory Information
            ------------------
          Available GA space size is       52428793038 doubles
          Available MA space size is        4194415148 doubles
          Length of a trial vector is          450     318
          Algorithm : Incore multiple tensor contraction
          Estimated peak GA usage is          15952488 doubles
          Estimated peak MA usage is             18000 doubles

    5 smallest eigenvalue differences (eV) 
--------------------------------------------------------
  No. Spin  Occ  Vir  Irrep   E(Occ)    E(Vir)   E(Diff)
--------------------------------------------------------
    1    1    9   10 a        -0.363     0.050    11.256
    2    1    8   10 a        -0.363     0.050    11.256
    3    1    7   10 a        -0.363     0.050    11.256
    4    1    9   11 a        -0.363     0.072    11.846
    5    1    8   11 a        -0.363     0.072    11.846
--------------------------------------------------------

  Entering Davidson iterations
  Unrestricted

  Iter   NTrls   NConv    DeltaV     DeltaE      Time   
  ----  ------  ------  ---------  ---------  --------- 
    1      5       0     0.45E-01   0.10+100        2.4
    2     15       0     0.17E-01   0.88E-02        3.7
    3     25       0     0.25E-01   0.86E-03        3.8
    4     35       0     0.22E+00   0.74E-02        3.8
    5     45       0     0.10E-01   0.18E-01        3.8
    6     55       0     0.17E-02   0.44E-04        3.8
    7     65       3     0.10E-03   0.76E-06        3.8
    8     67       5     0.36E-04   0.16E-08        1.7
  ----  ------  ------  ---------  ---------  --------- 
  Convergence criterion met

  Ground state a        -341.134990949159 a.u.
  <S2> =   3.7502

  ----------------------------------------------------------------------------
  Root   1         a              0.247905296 a.u.                6.7458 eV 
  <S2> =   3.7523
  ----------------------------------------------------------------------------
     Transition Moments    X -0.00511   Y  0.00001   Z  0.76225
     Transition Moments   XX -0.00000  XY -0.00000  XZ  0.00000
     Transition Moments   YY -0.00000  YZ  0.00000  ZZ -0.00000
     Dipole Oscillator Strength                    0.0960305455
     Electric Quadrupole                           0.0000000000
     Magnetic Dipole                               0.0000000000
     Total Oscillator Strength                     0.0960305455

     Occ.    8 alpha a   ---  Virt.   10 alpha a   -0.09115 X
     Occ.    9 alpha a   ---  Virt.   10 alpha a   -0.95122 X
     Occ.    9 alpha a   ---  Virt.   19 alpha a    0.21700 X
     Occ.    6 beta  a   ---  Virt.    8 beta  a   -0.14194 X
     Occ.    6 beta  a   ---  Virt.    9 beta  a   -0.09807 X
  ----------------------------------------------------------------------------
  Root   2         a              0.247905296 a.u.                6.7458 eV 
  <S2> =   3.7523
  ----------------------------------------------------------------------------
     Transition Moments    X  0.76225   Y -0.00002   Z  0.00511
     Transition Moments   XX  0.00000  XY  0.00000  XZ  0.00000
     Transition Moments   YY  0.00000  YZ  0.00000  ZZ  0.00000
     Dipole Oscillator Strength                    0.0960305455
     Electric Quadrupole                           0.0000000000
     Magnetic Dipole                               0.0000000000
     Total Oscillator Strength                     0.0960305455

     Occ.    8 alpha a   ---  Virt.   10 alpha a   -0.95122 X
     Occ.    8 alpha a   ---  Virt.   19 alpha a    0.21700 X
     Occ.    9 alpha a   ---  Virt.   10 alpha a    0.09115 X
     Occ.    6 beta  a   ---  Virt.    8 beta  a    0.09807 X
     Occ.    6 beta  a   ---  Virt.    9 beta  a   -0.14194 X
  ----------------------------------------------------------------------------
  Root   3         a              0.247905296 a.u.                6.7458 eV 
  <S2> =   3.7523
  ----------------------------------------------------------------------------
     Transition Moments    X  0.00002   Y  0.76225   Z -0.00001
     Transition Moments   XX  0.00005  XY -0.00000  XZ -0.00000
     Transition Moments   YY  0.00004  YZ  0.00000  ZZ  0.00005
     Dipole Oscillator Strength                    0.0960252919
     Electric Quadrupole                           0.0000000000
     Magnetic Dipole                               0.0000000000
     Total Oscillator Strength                     0.0960252919

     Occ.    7 alpha a   ---  Virt.   10 alpha a   -0.95558 X
     Occ.    7 alpha a   ---  Virt.   19 alpha a    0.21800 X
     Occ.    6 beta  a   ---  Virt.    7 beta  a   -0.17252 X
  ----------------------------------------------------------------------------
  Root   4         a              0.265583579 a.u.                7.2269 eV 
  <S2> =   3.7504
  ----------------------------------------------------------------------------
     Transition Moments    X -0.01862   Y  0.00000   Z  0.12746
     Transition Moments   XX  0.00000  XY -0.00000  XZ -0.00000
     Transition Moments   YY  0.00000  YZ  0.00000  ZZ  0.00000
     Dipole Oscillator Strength                    0.0029377358
     Electric Quadrupole                           0.0000000000
     Magnetic Dipole                               0.0000000000
     Total Oscillator Strength                     0.0029377358

     Occ.    7 alpha a   ---  Virt.   16 alpha a   -0.08819 X
     Occ.    7 alpha a   ---  Virt.   17 alpha a   -0.22815 X
     Occ.    7 alpha a   ---  Virt.   25 alpha a    0.06479 X
     Occ.    7 alpha a   ---  Virt.   26 alpha a   -0.06230 X
     Occ.    8 alpha a   ---  Virt.   15 alpha a    0.05989 X
     Occ.    8 alpha a   ---  Virt.   18 alpha a   -0.23716 X
     Occ.    8 alpha a   ---  Virt.   27 alpha a   -0.08714 X
     Occ.    9 alpha a   ---  Virt.   10 alpha a   -0.19022 X
     Occ.    9 alpha a   ---  Virt.   14 alpha a    0.14134 X
     Occ.    9 alpha a   ---  Virt.   15 alpha a    0.23702 X
     Occ.    9 alpha a   ---  Virt.   18 alpha a    0.05988 X
     Occ.    9 alpha a   ---  Virt.   23 alpha a    0.05141 X
     Occ.    9 alpha a   ---  Virt.   24 alpha a    0.08740 X
     Occ.    6 beta  a   ---  Virt.    8 beta  a    0.75075 X
     Occ.    6 beta  a   ---  Virt.    9 beta  a    0.37777 X
     Occ.    6 beta  a   ---  Virt.   12 beta  a    0.17836 X
     Occ.    6 beta  a   ---  Virt.   21 beta  a   -0.07446 X
  ----------------------------------------------------------------------------
  Root   5         a              0.265583579 a.u.                7.2269 eV 
  <S2> =   3.7504
  ----------------------------------------------------------------------------
     Transition Moments    X  0.12746   Y -0.00000   Z  0.01862
     Transition Moments   XX -0.00000  XY  0.00000  XZ -0.00000
     Transition Moments   YY -0.00000  YZ  0.00000  ZZ -0.00000
     Dipole Oscillator Strength                    0.0029377358
     Electric Quadrupole                           0.0000000000
     Magnetic Dipole                               0.0000000000
     Total Oscillator Strength                     0.0029377358

     Occ.    7 alpha a   ---  Virt.   16 alpha a   -0.22815 X
     Occ.    7 alpha a   ---  Virt.   17 alpha a    0.08819 X
     Occ.    7 alpha a   ---  Virt.   25 alpha a   -0.06230 X
     Occ.    7 alpha a   ---  Virt.   26 alpha a   -0.06479 X
     Occ.    8 alpha a   ---  Virt.   10 alpha a   -0.19022 X
     Occ.    8 alpha a   ---  Virt.   14 alpha a    0.14084 X
     Occ.    8 alpha a   ---  Virt.   15 alpha a   -0.23731 X
     Occ.    8 alpha a   ---  Virt.   18 alpha a   -0.05988 X
     Occ.    8 alpha a   ---  Virt.   23 alpha a    0.05227 X
     Occ.    8 alpha a   ---  Virt.   24 alpha a   -0.08689 X
     Occ.    9 alpha a   ---  Virt.   15 alpha a    0.05987 X
     Occ.    9 alpha a   ---  Virt.   18 alpha a   -0.23716 X
     Occ.    9 alpha a   ---  Virt.   27 alpha a   -0.08714 X
     Occ.    6 beta  a   ---  Virt.    8 beta  a   -0.37777 X
     Occ.    6 beta  a   ---  Virt.    9 beta  a    0.75075 X
     Occ.    6 beta  a   ---  Virt.   13 beta  a    0.17836 X
     Occ.    6 beta  a   ---  Virt.   22 beta  a   -0.07446 X

              Target root =      1
          Target symmetry = none
      Ground state energy =   -341.134990949159
        Excitation energy =      0.247905295936
     Excited state energy =   -340.887085653223

  stored tddft:energy   -340.88708565322332     

 Task  times  cpu:       25.8s     wall:       30.5s


                                NWChem Input Module
                                -------------------


 Summary of allocated global arrays
-----------------------------------
  No active global arrays


MA_summarize_allocated_blocks: starting scan ...
heap block 'gridpts', handle 80, address 0x13a91e28:
	type of elements:		double precision
	number of elements:		1048463508
	address of client space:	0x13a91e80
	index for client space:		13074215
	total number of bytes:		8387708160
MA_summarize_allocated_blocks: scan completed: 1 heap block, 0 stack blocks
MA usage statistics:

	allocation statistics:
					      heap	     stack
					      ----	     -----
	current number of blocks	         1	         0
	maximum number of blocks	        18	        54
	current total bytes		8387708160	         0
	maximum total bytes		8388304672	  22513464
	maximum total K-bytes		   8388305	     22514
	maximum total M-bytes		      8389	        23


                                     CITATION
                                     --------
                Please cite the following reference when publishing
                           results obtained with NWChem:

          E. Apra, E. J. Bylaska, W. A. de Jong, N. Govind, K. Kowalski,
       T. P. Straatsma, M. Valiev, H. J. J. van Dam, Y. Alexeev, J. Anchell,
       V. Anisimov, F. W. Aquino, R. Atta-Fynn, J. Autschbach, N. P. Bauman,
     J. C. Becca, D. E. Bernholdt, K. Bhaskaran-Nair, S. Bogatko, P. Borowski,
         J. Boschen, J. Brabec, A. Bruner, E. Cauet, Y. Chen, G. N. Chuev,
      C. J. Cramer, J. Daily, M. J. O. Deegan, T. H. Dunning Jr., M. Dupuis,
   K. G. Dyall, G. I. Fann, S. A. Fischer, A. Fonari, H. Fruchtl, L. Gagliardi,
      J. Garza, N. Gawande, S. Ghosh, K. Glaesemann, A. W. Gotz, J. Hammond,
       V. Helms, E. D. Hermes, K. Hirao, S. Hirata, M. Jacquelin, L. Jensen,
   B. G. Johnson, H. Jonsson, R. A. Kendall, M. Klemm, R. Kobayashi, V. Konkov,
      S. Krishnamoorthy, M. Krishnan, Z. Lin, R. D. Lins, R. J. Littlefield,
      A. J. Logsdail, K. Lopata, W. Ma, A. V. Marenich, J. Martin del Campo,
   D. Mejia-Rodriguez, J. E. Moore, J. M. Mullin, T. Nakajima, D. R. Nascimento,
    J. A. Nichols, P. J. Nichols, J. Nieplocha, A. Otero-de-la-Roza, B. Palmer,
    A. Panyala, T. Pirojsirikul, B. Peng, R. Peverati, J. Pittner, L. Pollack,
   R. M. Richard, P. Sadayappan, G. C. Schatz, W. A. Shelton, D. W. Silverstein,
   D. M. A. Smith, T. A. Soares, D. Song, M. Swart, H. L. Taylor, G. S. Thomas,
            V. Tipparaju, D. G. Truhlar, K. Tsemekhman, T. Van Voorhis,
      A. Vazquez-Mayagoitia, P. Verma, O. Villa, A. Vishnu, K. D. Vogiatzis,
        D. Wang, J. H. Weare, M. J. Williamson, T. L. Windus, K. Wolinski,
        A. T. Wong, Q. Wu, C. Yang, Q. Yu, M. Zacharias, Z. Zhang, Y. Zhao,
                                and R. J. Harrison
                        "NWChem: Past, present, and future
                         J. Chem. Phys. 152, 184102 (2020)
                               doi:10.1063/5.0004997

                                      AUTHORS
                                      -------
  E. Apra, E. J. Bylaska, N. Govind, K. Kowalski, M. Valiev, D. Mejia-Rodriguez,
       A. Kunitsa, N. P. Bauman, A. Panyala, W. A. de Jong, T. P. Straatsma,
   H. J. J. van Dam, D. Wang, T. L. Windus, J. Hammond, J. Autschbach, A. Woods,
    K. Bhaskaran-Nair, J. Brabec, K. Lopata, S. A. Fischer, S. Krishnamoorthy,
     M. Jacquelin, W. Ma, M. Klemm, O. Villa, Y. Chen, V. Anisimov, F. Aquino,
     S. Hirata, M. T. Hackler, E. Hermes, L. Jensen, J. E. Moore, J. C. Becca,
      V. Konjkov, T. Risthaus, M. Malagoli, A. Marenich, A. Otero-de-la-Roza,
        J. Mullin, P. Nichols, R. Peverati, J. Pittner, Y. Zhao, P.-D. Fan,
        A. Fonari, M. J. Williamson, R. J. Harrison, J. R. Rehr, M. Dupuis,
     D. Silverstein, D. M. A. Smith, J. Nieplocha, V. Tipparaju, M. Krishnan,
     B. E. Van Kuiken, A. Vazquez-Mayagoitia, M. Swart, Q. Wu, T. Van Voorhis,
     A. A. Auer, M. Nooijen, L. D. Crosby, E. Brown, G. Cisneros, G. I. Fann,
   H. Fruchtl, J. Garza, K. Hirao, R. A. Kendall, J. A. Nichols, K. Tsemekhman,
    K. Wolinski, J. Anchell, D. E. Bernholdt, P. Borowski, T. Clark, D. Clerc,
   H. Dachsel, M. J. O. Deegan, K. Dyall, D. Elwood, E. Glendening, M. Gutowski,
   A. C. Hess, J. Jaffe, B. G. Johnson, J. Ju, R. Kobayashi, R. Kutteh, Z. Lin,
   R. Littlefield, X. Long, B. Meng, T. Nakajima, S. Niu, L. Pollack, M. Rosing,
   K. Glaesemann, G. Sandrone, M. Stave, H. Taylor, G. Thomas, J. H. van Lenthe,
                               A. T. Wong, Z. Zhang.

 Total times  cpu:       25.8s     wall:       30.8s
