 argument  1 = /home/aditisingh4812/nw_chem/nwchem-run/nwchem-run/tddft/open/open_atom/geom-MOL/s.nw
                                         
                                         


             Northwest Computational Chemistry Package (NWChem) 7.2.3
             --------------------------------------------------------


                    Environmental Molecular Sciences Laboratory
                       Pacific Northwest National Laboratory
                                Richland, WA 99352

                              Copyright (c) 1994-2022
                       Pacific Northwest National Laboratory
                            Battelle Memorial Institute

             NWChem is an open-source computational chemistry package
                        distributed under the terms of the
                      Educational Community License (ECL) 2.0
             A copy of the license is included with this distribution
                              in the LICENSE.TXT file

                                  ACKNOWLEDGMENT
                                  --------------

            This software and its documentation were developed at the
            EMSL at Pacific Northwest National Laboratory, a multiprogram
            national laboratory, operated for the U.S. Department of Energy
            by Battelle under Contract Number DE-AC05-76RL01830. Support
            for this work was provided by the Department of Energy Office
            of Biological and Environmental Research, Office of Basic
            Energy Sciences, and the Office of Advanced Scientific Computing.


           Job information
           ---------------

    hostname        = p17
    program         = /home/aditisingh4812/nw_chem/nwchem-7.2.3-release.revision-d690e065-srconly.2024-08-27/nwchem-7.2.3/bin/LINUX64/nwchem
    date            = Thu May  8 11:54:53 2025

    compiled        = Mon_Apr_07_18:51:54_2025
    source          = /home/aditisingh4812/nw_chem/nwchem-7.2.3-release.revision-d690e065-srconly.2024-08-27/nwchem-7.2.3
    nwchem branch   = 7.2.3
    nwchem revision = d690e065
    ga revision     = 5.8.0
    use scalapack   = F
    input           = /home/aditisingh4812/nw_chem/nwchem-run/nwchem-run/tddft/open/open_atom/geom-MOL/s.nw
    prefix          = s.
    data base       = ./s.db
    status          = startup
    nproc           =        8
    time left       =     -1s



           Memory information
           ------------------

    heap     = 2621439998 doubles =  20000.0 Mbytes
    stack    = 2621439995 doubles =  20000.0 Mbytes
    global   = 6553600000 doubles =  50000.0 Mbytes (distinct from heap & stack)
    total    = ********** doubles =  90000.0 Mbytes
    verify   = yes
    hardfail = no 


           Directory information
           ---------------------

  0 permanent = .
  0 scratch   = .




                                NWChem Input Module
                                -------------------



 Scaling coordinates for geometry "geometry" by  1.889725989
 (inverse scale =  0.529177249)



                             Geometry "geometry" -> ""
                             -------------------------

 Output coordinates in angstroms (scale by  1.889725989 to convert to a.u.)

  No.       Tag          Charge          X              Y              Z
 ---- ---------------- ---------- -------------- -------------- --------------
    1 S                   16.0000     0.00000000     0.00000000     0.00000000

      Atomic Mass 
      ----------- 

      S                 31.972070


 Effective nuclear repulsion energy (a.u.)       0.0000000000

            Nuclear Dipole moment (a.u.) 
            ----------------------------
        X                 Y               Z
 ---------------- ---------------- ----------------
     0.0000000000     0.0000000000     0.0000000000


            XYZ format geometry
            -------------------
     1
 geometry
 S                     0.00000000     0.00000000     0.00000000



 Summary of "ao basis" -> "" (cartesian)
 ------------------------------------------------------------------------------
       Tag                 Description            Shells   Functions and Types
 ---------------- ------------------------------  ------  ---------------------
 *                        aug-cc-pVTZ                 on all atoms 


  pbe96 is a nonlocal functional; adding pw91lda local functional. 

                                 NWChem DFT Module
                                 -----------------


                      Basis "ao basis" -> "ao basis" (cartesian)
                      -----
  S (Sulphur)
  -----------
            Exponent  Coefficients 
       -------------- ---------------------------------------------------------
  1 S  3.74100000E+05  0.000054
  1 S  5.60500000E+04  0.000421
  1 S  1.27600000E+04  0.002207
  1 S  3.61500000E+03  0.009193
  1 S  1.18300000E+03  0.032112
  1 S  4.28800000E+02  0.094668
  1 S  1.67800000E+02  0.223630
  1 S  6.94700000E+01  0.374393
  1 S  2.98400000E+01  0.329108
  1 S  1.27200000E+01  0.084704
  1 S  5.24400000E+00  0.000441
  1 S  2.21900000E+00  0.001648
  1 S  3.49000000E-01  0.000301

  2 S  3.74100000E+05 -0.000015
  2 S  5.60500000E+04 -0.000116
  2 S  1.27600000E+04 -0.000612
  2 S  3.61500000E+03 -0.002554
  2 S  1.18300000E+03 -0.009087
  2 S  4.28800000E+02 -0.027705
  2 S  1.67800000E+02 -0.072002
  2 S  6.94700000E+01 -0.146439
  2 S  2.98400000E+01 -0.195150
  2 S  1.27200000E+01  0.008192
  2 S  5.24400000E+00  0.516601
  2 S  2.21900000E+00  0.542178
  2 S  3.49000000E-01 -0.009181

  3 S  3.74100000E+05  0.000004
  3 S  5.60500000E+04  0.000034
  3 S  1.27600000E+04  0.000178
  3 S  3.61500000E+03  0.000741
  3 S  1.18300000E+03  0.002646
  3 S  4.28800000E+02  0.008075
  3 S  1.67800000E+02  0.021228
  3 S  6.94700000E+01  0.043832
  3 S  2.98400000E+01  0.061272
  3 S  1.27200000E+01 -0.003615
  3 S  5.24400000E+00 -0.204510
  3 S  2.21900000E+00 -0.381871
  3 S  3.49000000E-01  0.714147

  4 S  7.76700000E-01  1.000000

  5 S  1.32200000E-01  1.000000

  6 S  4.97000000E-02  1.000000

  7 P  5.74400000E+02  0.002423
  7 P  1.35800000E+02  0.019280
  7 P  4.31900000E+01  0.088540
  7 P  1.58700000E+01  0.254654
  7 P  6.20800000E+00  0.433984
  7 P  2.48300000E+00  0.354953
  7 P  3.22900000E-01 -0.005030

  8 P  5.74400000E+02 -0.000620
  8 P  1.35800000E+02 -0.004939
  8 P  4.31900000E+01 -0.023265
  8 P  1.58700000E+01 -0.068520
  8 P  6.20800000E+00 -0.123896
  8 P  2.48300000E+00 -0.096950
  8 P  3.22900000E-01  0.569394

  9 P  8.68800000E-01  1.000000

 10 P  1.09800000E-01  1.000000

 11 P  3.51000000E-02  1.000000

 12 D  2.69000000E-01  1.000000

 13 D  8.19000000E-01  1.000000

 14 D  1.01000000E-01  1.000000

 15 F  5.57000000E-01  1.000000

 16 F  2.18000000E-01  1.000000



 Summary of "ao basis" -> "ao basis" (cartesian)
 ------------------------------------------------------------------------------
       Tag                 Description            Shells   Functions and Types
 ---------------- ------------------------------  ------  ---------------------
 S                        aug-cc-pVTZ               16       59   6s5p3d2f




 Summary of "ao basis" -> "ao basis" (cartesian)
 ------------------------------------------------------------------------------
       Tag                 Description            Shells   Functions and Types
 ---------------- ------------------------------  ------  ---------------------
 S                        aug-cc-pVTZ               16       59   6s5p3d2f




                         Geometry "geometry" -> "geometry"
                         ---------------------------------

 Output coordinates in angstroms (scale by  1.889725989 to convert to a.u.)

  No.       Tag          Charge          X              Y              Z
 ---- ---------------- ---------- -------------- -------------- --------------
    1 S                   16.0000     0.00000000     0.00000000     0.00000000

      Atomic Mass 
      ----------- 

      S                 31.972070


 Effective nuclear repulsion energy (a.u.)       0.0000000000

            Nuclear Dipole moment (a.u.) 
            ----------------------------
        X                 Y               Z
 ---------------- ---------------- ----------------
     0.0000000000     0.0000000000     0.0000000000


                      Basis "ao basis" -> "ao basis" (cartesian)
                      -----
  S (Sulphur)
  -----------
            Exponent  Coefficients 
       -------------- ---------------------------------------------------------
  1 S  3.74100000E+05  0.584419
  1 S  5.60500000E+04  1.092538
  1 S  1.27600000E+04  1.888246
  1 S  3.61500000E+03  3.054153
  1 S  1.18300000E+03  4.616174
  1 S  4.28800000E+02  6.357229
  1 S  1.67800000E+02  7.430127
  1 S  6.94700000E+01  6.420190
  1 S  2.98400000E+01  2.994399
  1 S  1.27200000E+01  0.406575
  1 S  5.24400000E+00  0.001089
  1 S  2.21900000E+00  0.002136
  1 S  3.49000000E-01  0.000097

  2 S  3.74100000E+05 -0.170110
  2 S  5.60500000E+04 -0.317688
  2 S  1.27600000E+04 -0.551080
  2 S  3.61500000E+03 -0.893557
  2 S  1.18300000E+03 -1.375733
  2 S  4.28800000E+02 -1.959352
  2 S  1.67800000E+02 -2.519473
  2 S  6.94700000E+01 -2.644697
  2 S  2.98400000E+01 -1.869988
  2 S  1.27200000E+01  0.041412
  2 S  5.24400000E+00  1.343610
  2 S  2.21900000E+00  0.739828
  2 S  3.49000000E-01 -0.003129

  3 S  3.74100000E+05  0.073566
  3 S  5.60500000E+04  0.137285
  3 S  1.27600000E+04  0.238448
  3 S  3.61500000E+03  0.386233
  3 S  1.18300000E+03  0.596617
  3 S  4.28800000E+02  0.850568
  3 S  1.67800000E+02  1.106311
  3 S  6.94700000E+01  1.179029
  3 S  2.98400000E+01  0.874461
  3 S  1.27200000E+01 -0.027219
  3 S  5.24400000E+00 -0.792216
  3 S  2.21900000E+00 -0.776099
  3 S  3.49000000E-01  0.362484

  4 S  7.76700000E-01  0.589658

  5 S  1.32200000E-01  0.156255

  6 S  4.97000000E-02  0.075020

  7 P  5.74400000E+02 10.008368
  7 P  1.35800000E+02 13.130434
  7 P  4.31900000E+01 14.402085
  7 P  1.58700000E+01 11.850264
  7 P  6.20800000E+00  6.247693
  7 P  2.48300000E+00  1.625355
  7 P  3.22900000E-01 -0.001799

  8 P  5.74400000E+02 -4.264907
  8 P  1.35800000E+02 -5.599848
  8 P  4.31900000E+01 -6.300207
  8 P  1.58700000E+01 -5.308401
  8 P  6.20800000E+00 -2.969445
  8 P  2.48300000E+00 -0.739089
  8 P  3.22900000E-01  0.338982

  9 P  8.68800000E-01  1.195611

 10 P  1.09800000E-01  0.090093

 11 P  3.51000000E-02  0.021656

 12 D  2.69000000E-01  0.165377

 13 D  8.19000000E-01  1.160530

 14 D  1.01000000E-01  0.029783

 15 F  5.57000000E-01  0.394574

 16 F  2.18000000E-01  0.047806



    Basis function labels
    ---------------------
       No.  Atm El Type
       ---  --- -- ----
        1    1 S  s          
        2    1 S  s          
        3    1 S  s          
        4    1 S  s          
        5    1 S  s          
        6    1 S  s          
        7    1 S  px         
        8    1 S  py         
        9    1 S  pz         
       10    1 S  px         
       11    1 S  py         
       12    1 S  pz         
       13    1 S  px         
       14    1 S  py         
       15    1 S  pz         
       16    1 S  px         
       17    1 S  py         
       18    1 S  pz         
       19    1 S  px         
       20    1 S  py         
       21    1 S  pz         
       22    1 S  dxx        
       23    1 S  dxy        
       24    1 S  dxz        
       25    1 S  dyy        
       26    1 S  dyz        
       27    1 S  dzz        
       28    1 S  dxx        
       29    1 S  dxy        
       30    1 S  dxz        
       31    1 S  dyy        
       32    1 S  dyz        
       33    1 S  dzz        
       34    1 S  dxx        
       35    1 S  dxy        
       36    1 S  dxz        
       37    1 S  dyy        
       38    1 S  dyz        
       39    1 S  dzz        
       40    1 S  fxxx       
       41    1 S  fxxy       
       42    1 S  fxxz       
       43    1 S  fxyy       
       44    1 S  fxyz       
       45    1 S  fxzz       
       46    1 S  fyyy       
       47    1 S  fyyz       
       48    1 S  fyzz       
       49    1 S  fzzz       
       50    1 S  fxxx       
       51    1 S  fxxy       
       52    1 S  fxxz       
       53    1 S  fxyy       
       54    1 S  fxyz       
       55    1 S  fxzz       
       56    1 S  fyyy       
       57    1 S  fyyz       
       58    1 S  fyzz       
       59    1 S  fzzz       
  int_init: cando_txs set to always be  F

 Schwarz integral screening summary 
 ---------------------------------- 

        No. of atom pairs =       1
       No. of shell pairs =     136

 Atomic screening 

   value      no.     value      no.     value      no.     value      no.   
  -------- ------    -------- ------    -------- ------    -------- ------   
  0.00D+00      0    1.00D-13      0    1.00D-12      0    1.00D-11      0
  1.00D-10      0    1.00D-09      0    1.00D-08      0    1.00D-07      0
  1.00D-06      0    1.00D-05      0    1.00D-04      0    1.00D-03      0
  1.00D-02      0    1.00D-01      0    1.00D+00      1    1.00D+01      0


 Shell screening 

   value      no.     value      no.     value      no.     value      no.   
  -------- ------    -------- ------    -------- ------    -------- ------   
  0.00D+00      0    1.00D-13      0    1.00D-12      0    1.00D-11      0
  1.00D-10      0    1.00D-09      0    1.00D-08      0    1.00D-07      0
  1.00D-06      0    1.00D-05      0    1.00D-04      1    1.00D-03      5
  1.00D-02      7    1.00D-01     47    1.00D+00     76    1.00D+01      0


  Caching 1-el integrals 
  atom                     1  - neighbor  & S                     1   10.000000000000000       exp AB    3.5100000000000027E-002   3.5100000000000027E-002
 zmins =     0.035100000    0.035100000 lprod =   2 range =        17.71 acc   0.10D-06
 sh     0.000000000
  Center:                     1  Radial Pts. & Wghts. 
    1        0.000002526           4.8342212E-17
    2        0.000020207           1.2375697E-14
    3        0.000068197           3.1718190E-13
    4        0.000161655           3.1683646E-12
    5        0.000315737           1.8886133E-11
    6        0.000545607           8.1214667E-11
    7        0.000866433           2.7878323E-10
    8        0.001293391           8.1148264E-10
    9        0.001841672           2.0825637E-09
   10        0.002526478           4.8392909E-09
   11        0.003363034           1.0377054E-08
   12        0.004366588           2.0823972E-08
   13        0.005552416           3.9525219E-08
   14        0.006935830           7.1548616E-08
   15        0.008532181           1.2433543E-07
   16        0.010356869           2.0852290E-07
   17        0.012425347           3.3896766E-07
   18        0.014753130           5.3600233E-07
   19        0.017355805           8.2696046E-07
   20        0.020249034           1.2480086E-06
   21        0.023448570           1.8463278E-06
   22        0.026970263           2.6826920E-06
   23        0.030830071           3.8344923E-06
   24        0.035044069           5.3992661E-06
   25        0.039628468           7.4987900E-06
   26        0.044599616           1.0283806E-05
   27        0.049974023           1.3939453E-05
   28        0.055768364           1.8691494E-05
   29        0.061999502           2.4813411E-05
   30        0.068684497           3.2634494E-05
   31        0.075840626           4.2549012E-05
   32        0.083485397           5.5026602E-05
   33        0.091636572           7.0624003E-05
   34        0.100312177           8.9998300E-05
   35        0.109530530           1.1392183E-04
   36        0.119310259           1.4329895E-04
   37        0.129670322           1.7918488E-04
   38        0.140630032           2.2280680E-04
   39        0.152209083           2.7558759E-04
   40        0.164427573           3.3917237E-04
   41        0.177306031           4.1545818E-04
   42        0.190865449           5.0662733E-04
   43        0.205127311           6.1518457E-04
   44        0.220113622           7.4399880E-04
   45        0.235846949           8.9634965E-04
   46        0.252350452           1.0759796E-03
   47        0.269647921           1.2871525E-03
   48        0.287763824           1.5347184E-03
   49        0.306723343           1.8241874E-03
   50        0.326552425           2.1618109E-03
   51        0.347277829           2.5546733E-03
   52        0.368927177           3.0107955E-03
   53        0.391529015           3.5392496E-03
   54        0.415112867           4.1502885E-03
   55        0.439709302           4.8554916E-03
   56        0.465350002           5.6679281E-03
   57        0.492067835           6.6023411E-03
   58        0.519896935           7.6753549E-03
   59        0.548872783           8.9057083E-03
   60        0.579032302           1.0314519E-02
   61        0.610413952           1.1925580E-02
   62        0.643057837           1.3765698E-02
   63        0.677005817           1.5865077E-02
   64        0.712301635           1.8257745E-02
   65        0.748991047           2.0982053E-02
   66        0.787121967           2.4081230E-02
   67        0.826744623           2.7604019E-02
   68        0.867911734           3.1605409E-02
   69        0.910678686           3.6147460E-02
   70        0.955103742           4.1300257E-02
   71        1.001248262           4.7143000E-02
   72        1.049176943           5.3765256E-02
   73        1.098958088           6.1268404E-02
   74        1.150663897           6.9767300E-02
   75        1.204370787           7.9392197E-02
   76        1.260159746           9.0290986E-02
   77        1.318116728           1.0263178E-01
   78        1.378333082           1.1660593E-01
   79        1.440906035           1.3243156E-01
   80        1.505939226           1.5035769E-01
   81        1.573543302           1.7066908E-01
   82        1.643836581           1.9369194E-01
   83        1.716945804           2.1980068E-01
   84        1.793006967           2.4942588E-01
   85        1.872166266           2.8306383E-01
   86        1.954581164           3.2128786E-01
   87        2.040421600           3.6476197E-01
   88        2.129871357           4.1425717E-01
   89        2.223129638           4.7067129E-01
   90        2.320412848           5.3505300E-01
   91        2.421956665           6.0863113E-01
   92        2.528018413           6.9285056E-01
   93        2.638879820           7.8941655E-01
   94        2.754850223           9.0034962E-01
   95        2.876270324           1.0280541E+00
   96        3.003516593           1.1754040E+00
   97        3.137006486           1.3458518E+00
   98        3.277204635           1.5435670E+00
   99        3.424630264           1.7736138E+00
  100        3.579866110           2.0421812E+00
  101        3.743569245           2.3568839E+00
  102        3.916484314           2.7271597E+00
  103        4.099459842           3.1647994E+00
  104        4.293468529           3.6846625E+00
  105        4.499632752           4.3056568E+00
  106        4.719256973           5.0520973E+00
  107        4.953869415           5.9556217E+00
  108        5.205276386           7.0579374E+00
  109        5.475634161           8.4148394E+00
  110        5.767545707           1.0102212E+01
  111        6.084193301           1.2225222E+01
  112        6.429524352           1.4932792E+01
  113        6.808518268           1.8441134E+01
  114        7.227580865           2.3073467E+01
  115        7.695147313           2.9330040E+01
  116        8.222641679           3.8018245E+01
  117        8.826080596           5.0510296E+01
  118        9.528921508           6.9295846E+01
  119       10.367531309           9.9295015E+01
  120       11.402835083           1.5143849E+02
  121       12.749046475           2.5455268E+02
  122       14.662579415           5.0928078E+02
  123       17.961630354           1.5411045E+03
     irreducible set of Lebedev Angular points ;
  0.009523809523810  1.000000000000000  0.000000000000000  0.000000000000000
  0.032142857142857  0.577350269189626  0.577350269189626  0.577350269189626
  0.028571428571429  0.459700843380983  0.000000000000000  0.888073833977115
   total no. of   reducible points:  38; test:  1.00000000
  0.012698412698413  1.000000000000000  0.000000000000000  0.000000000000000
  0.022574955908289  0.707106781186547  0.707106781186547  0.000000000000000
  0.021093750000000  0.577350269189626  0.577350269189626  0.577350269189626
  0.020173335537919  0.301511344577764  0.301511344577764  0.904534033733291
   total no. of   reducible points:  50; test:  1.00000000
  0.000513067179734  1.000000000000000  0.000000000000000  0.000000000000000
  0.016604069565742  0.707106781186547  0.707106781186547  0.000000000000000
 -0.029586038961039  0.577350269189626  0.577350269189626  0.577350269189626
  0.026576207082159  0.480384461415261  0.480384461415261  0.733799385705343
  0.016522170993716  0.320772648980776  0.000000000000000  0.947156221362588
   total no. of   reducible points:  74; test:  1.00000000
  0.011544011544012  1.000000000000000  0.000000000000000  0.000000000000000
  0.011943909085856  0.577350269189626  0.577350269189626  0.577350269189626
  0.011110555710603  0.369602846454150  0.369602846454150  0.852518311701268
  0.011876501294537  0.694354006602666  0.694354006602666  0.189063552885395
  0.011812303746904  0.374243039090341  0.000000000000000  0.927330657151172
   total no. of   reducible points:  86; test:  1.00000000
  0.003828270494937  1.000000000000000  0.000000000000000  0.000000000000000
  0.009793737512488  0.577350269189626  0.577350269189626  0.577350269189626
  0.008211737283191  0.185115635344736  0.185115635344736  0.965124035086594
  0.009942814891178  0.690421048382292  0.690421048382292  0.215957291845848
  0.009595471336071  0.395689473055942  0.395689473055942  0.828769981252592
  0.009694996361663  0.478369028812150  0.000000000000000  0.878158910604066
   total no. of   reducible points: 110; test:  1.00000000
  0.000599631368862  1.000000000000000  0.000000000000000  0.000000000000000
  0.007372999718621  0.707106781186547  0.707106781186547  0.000000000000000
  0.007210515360144  0.577350269189626  0.577350269189626  0.577350269189626
  0.007116355493118  0.676441040011426  0.676441040011426  0.291298882209527
  0.006753829486314  0.417496122796545  0.417496122796545  0.807089818359583
  0.007574394159054  0.157467667203908  0.157467667203908  0.974888643677173
  0.006991087353303  0.140355381171318  0.449332832326956  0.882270011260323
   total no. of   reducible points: 146; test:  1.00000000
  0.005544842902037  1.000000000000000  0.000000000000000  0.000000000000000
  0.006071332770671  0.707106781186547  0.707106781186547  0.000000000000000
  0.006383674773515  0.577350269189626  0.577350269189626  0.577350269189626
  0.005183387587748  0.255125262111413  0.255125262111413  0.932642590312691
  0.006317929009814  0.674360146036277  0.674360146036277  0.300793595137701
  0.006201670006589  0.431891069671941  0.431891069671941  0.791795559393492
  0.005477143385137  0.261393136033599  0.000000000000000  0.965232421976448
  0.005968383987681  0.499045316179604  0.144663074432512  0.854415804684659
   total no. of   reducible points: 170; test:  1.00000000
  0.001782340447245  1.000000000000000  0.000000000000000  0.000000000000000
  0.005716905949977  0.707106781186547  0.707106781186547  0.000000000000000
  0.005573383178849  0.577350269189626  0.577350269189626  0.577350269189626
  0.005608704082588  0.671297344269523  0.671297344269523  0.314196994182586
  0.005158237711805  0.289246562757544  0.289246562757544  0.912509096867474
  0.005518771467274  0.444693317871744  0.444693317871744  0.777493219314767
  0.004106777028169  0.129933544765007  0.129933544765007  0.982972302707253
  0.005051846064615  0.345770219761128  0.000000000000000  0.938319218137592
  0.005530248916233  0.159041710538353  0.836036015482459  0.525118572443642
   total no. of   reducible points: 194; test:  1.00000000
 -0.055226399197273  1.000000000000000  0.000000000000000  0.000000000000000
  0.004450274607445  0.577350269189626  0.577350269189626  0.577350269189626
  0.004496841067921  0.449204468739761  0.449204468739761  0.772289253148364
  0.005049153450479  0.252041949021020  0.252041949021020  0.934317778845812
  0.003976408018052  0.698190665844724  0.698190665844724  0.158302205463478
  0.004401400650381  0.658740524346096  0.658740524346096  0.363485684956727
  0.017245443505444  0.040385440500977  0.040385440500977  0.998367683967727
  0.004231083095357  0.582384230971558  0.000000000000000  0.812913653173365
  0.005198069864064  0.354587739051869  0.000000000000000  0.935022745880593
  0.004695720972569  0.227218180899819  0.486466153588665  0.843636521068894
   total no. of   reducible points: 230; test:  1.00000000
 -0.001313769127327  1.000000000000000  0.000000000000000  0.000000000000000
 -0.002522728704859  0.707106781186547  0.707106781186547  0.000000000000000
  0.004186853881701  0.577350269189626  0.577350269189626  0.577350269189626
  0.005315167977811  0.703937339158548  0.703937339158548  0.094575076403713
  0.004047142377086  0.101252624857241  0.101252624857241  0.989694807462905
  0.004112482394407  0.464744872642054  0.464744872642054  0.753673939250816
  0.003595584899759  0.327742065497163  0.327742065497163  0.886098344997499
  0.004256131351428  0.662033866369997  0.662033866369997  0.351315128564633
  0.004229582700647  0.850650808352040  0.000000000000000  0.525731112119134
  0.004080914225781  0.323348454269290  0.115311201100970  0.939227929749916
  0.004071467593831  0.231479015871260  0.524493924092236  0.819343388819120
   total no. of   reducible points: 266; test:  1.00000000
  0.000854591172513  1.000000000000000  0.000000000000000  0.000000000000000
  0.003599119285026  0.577350269189626  0.577350269189626  0.577350269189626
  0.003449788424306  0.351564034557011  0.351564034557011  0.867643624544083
  0.003604822601420  0.656632941021961  0.656632941021961  0.371034178384821
  0.003576729661743  0.472905413258100  0.472905413258100  0.743452042987556
  0.002352101413689  0.096183085226148  0.096183085226148  0.990705621379408
  0.003108953122414  0.221964523629418  0.221964523629418  0.949454317226443
  0.003650045807677  0.701176641608955  0.701176641608955  0.129238672710514
  0.002982344963172  0.264415288706066  0.000000000000000  0.964408914879206
  0.003600820932216  0.571895589187896  0.000000000000000  0.820326419827759
  0.003571540554273  0.251003475177047  0.800072749407395  0.544867737258077
  0.003392312205006  0.123354853258333  0.412772408316853  0.902442529533000
   total no. of   reducible points: 302; test:  1.00000000
  0.003006796749454  1.000000000000000  0.000000000000000  0.000000000000000
  0.003050627745651  0.577350269189626  0.577350269189626  0.577350269189626
  0.001621104600289  0.706896546391232  0.706896546391232  0.024383301669356
  0.003005701484902  0.479468262571203  0.479468262571203  0.734996850587746
  0.002990992529654  0.192753315487802  0.192753315487802  0.962129055136014
  0.002982170644108  0.693035796132712  0.693035796132712  0.198501311223365
  0.002721564237311  0.360830211552009  0.360830211552009  0.860001812127547
  0.003033513795811  0.649848616149617  0.649848616149617  0.394199888605839
  0.003007949555219  0.193294501323034  0.000000000000000  0.981140782843257
  0.002881964603055  0.380049491989930  0.000000000000000  0.924966152698679
  0.002958357626536  0.289955882549957  0.793453785658232  0.535123047718276
  0.003036020026407  0.096841214551040  0.828080150668686  0.552182074349399
  0.002832187403926  0.183343464704166  0.907465826530513  0.378009189874487
   total no. of   reducible points: 350; test:  1.00000000
  0.000526589796822  1.000000000000000  0.000000000000000  0.000000000000000
  0.002548219972003  0.707106781186547  0.707106781186547  0.000000000000000
  0.002512317418927  0.577350269189626  0.577350269189626  0.577350269189626
  0.002530403801186  0.690934630750911  0.690934630750911  0.212646824707552
  0.002014279020919  0.177483605460916  0.177483605460916  0.967987158791473
  0.002501725168403  0.491434263778475  0.491434263778475  0.719016501040843
  0.002513267174598  0.645666470742426  0.645666470742426  0.407712664897770
  0.002302694782227  0.286128901030764  0.286128901030764  0.914472801120872
  0.001462495621595  0.075680843671780  0.075680843671780  0.994255912631278
  0.002445373437313  0.392725976336800  0.392725976336800  0.831584400419232
  0.002417442375639  0.881813287779429  0.000000000000000  0.471598691151316
  0.001910951282180  0.977642811118265  0.000000000000000  0.210272522857307
  0.002416930044325  0.205482369640304  0.868946032287241  0.450233038258263
  0.002512236854563  0.590515704892527  0.799927854385729  0.106801826075805
  0.002496644054553  0.555015236107681  0.771746262691590  0.310428403516654
  0.002236607760438  0.937180985855372  0.334436314534346  0.099217696364292
   total no. of   reducible points: 434; test:  1.00000000
  0.000309512129531  1.000000000000000  0.000000000000000  0.000000000000000
  0.001852379698597  0.577350269189626  0.577350269189626  0.577350269189626
  0.001871790639278  0.704095493822747  0.704095493822747  0.092190407076898
  0.001858812585438  0.680774406645524  0.680774406645524  0.270356088359165
  0.001852028828296  0.637254693925875  0.637254693925875  0.433373868777154
  0.001846715956151  0.504441970780036  0.504441970780036  0.700768575373573
  0.001818471778163  0.421576178401097  0.421576178401097  0.802836877335274
  0.001749564657281  0.331792073647212  0.331792073647212  0.883078727934133
  0.001617210647254  0.238473670142189  0.238473670142189  0.941414158220403
  0.001384737234852  0.145903644915776  0.145903644915776  0.978480583762694
  0.000976433116505  0.060950341155072  0.060950341155072  0.996278129754016
  0.001857161196774  0.611684344200988  0.000000000000000  0.791101929626902
  0.001705153996396  0.396475534819986  0.000000000000000  0.918045287711454
  0.001300321685886  0.172478200990772  0.000000000000000  0.985013335028002
  0.001842866472905  0.561026380862206  0.351828092773352  0.749310611904116
  0.001802658934377  0.474239284255198  0.263471665593795  0.840047488359050
  0.001849830560444  0.598412649788538  0.181664084036021  0.780320742479920
  0.001713904507107  0.379103540769556  0.172079522565688  0.909213475092374
  0.001555213603397  0.277867319058624  0.082130215819325  0.957102074310073
  0.001802239128009  0.503356427107512  0.089992058420749  0.859379855890721
   total no. of   reducible points: 590; test:  1.00000000
  0.000219294208818  1.000000000000000  0.000000000000000  0.000000000000000
  0.001436433617319  0.707106781186547  0.707106781186547  0.000000000000000
  0.001421940344336  0.577350269189626  0.577350269189626  0.577350269189626
  0.000679812351105  0.050872044105024  0.050872044105024  0.997408677652823
  0.000991318423529  0.122819879017883  0.122819879017883  0.984799753572301
  0.001180207833239  0.202689081440879  0.202689081440879  0.958036675983391
  0.001296599602081  0.284774515646429  0.284774515646429  0.915317950483155
  0.001365871427428  0.365671907897803  0.365671907897803  0.855901928697887
  0.001402988604775  0.442826488671347  0.442826488671347  0.779621319527635
  0.001418645563596  0.514061962724974  0.514061962724974  0.686644447264154
  0.001421376741852  0.630640121916680  0.630640121916680  0.452311920313658
  0.001423996475491  0.671688333202261  0.671688333202261  0.312521305001653
  0.001431554042179  0.697979268533688  0.697979268533688  0.160155803498829
  0.000925440149987  0.144686567419531  0.000000000000000  0.989477537495599
  0.001250239995054  0.339026347541122  0.000000000000000  0.940776878793759
  0.001394365843329  0.533580465126351  0.000000000000000  0.845749305193653
  0.001127089094672  0.069440243933494  0.235518789424233  0.969385863498432
  0.001345753760911  0.226900410952946  0.410218247404573  0.883310360522113
  0.001424957283317  0.080255746077753  0.621430241748161  0.779348105702661
  0.001261523341238  0.146799952789657  0.324528434571739  0.934414827052402
  0.001392547106053  0.157150776982473  0.522448218969663  0.838064133458312
  0.001418761677878  0.236570299315725  0.601754663408956  0.762840624604670
  0.001338366684480  0.077148158667657  0.434657551614116  0.897285336132833
  0.001393700862676  0.306293666621073  0.490882658903762  0.815609223203975
  0.001415914757467  0.382247737952479  0.564876814909950  0.731300793659766
   total no. of   reducible points: 770; test:  1.00000000
  qrot: 

              1        2        3      
    1    1.0000   0.0000   0.0000
    2    0.0000   1.0000   0.0000
    3    0.0000   0.0000   1.0000
  me                     0   done genpts
  me                     1   done genpts
  me                     2   done genpts
  me                     3   done genpts
  me                     4   done genpts
  me                     5   done genpts
  me                     6   done genpts
  me                     7   done genpts
  me                     0   done uprt
  me                     1   done uprt
  me                     2   done uprt
  me                     3   done uprt
  me                     4   done uprt
  me                     5   done uprt
  me                     6   done uprt
  me                     7   done uprt
  me                     0  done mem
  me                     1  done mem
  me                     2  done mem
  me                     3  done mem
  me                     4  done mem
  me                     5  done mem
  me                     6  done mem
  me                     7  done mem
  dftinpanae: itol2e                     8  iaoacc                    14  tol_rho    1.0000000000000000E-010

            General Information
            -------------------
          SCF calculation type: DFT
          Wavefunction type:  spin polarized.
          No. of atoms     :     1
          No. of electrons :    16
           Alpha electrons :     9
            Beta electrons :     7
          Charge           :     0
          Spin multiplicity:     3
          Use of symmetry is: off; symmetry adaption is: off
          Maximum number of iterations:  50
          AO basis - number of functions:    59
                     number of shells:    16
          Convergence on energy requested:  1.00D-06
          Convergence on density requested:  1.00D-05
          Convergence on gradient requested:  5.00D-04

              XC Information
              --------------
                     Hartree-Fock (Exact) Exchange  1.000          
                     LC-wPBE(h)Exchange Functional  1.000          
            Perdew 1991 LDA Correlation Functional  1.000 local    
           PerdewBurkeErnz. Correlation Functional  1.000 non-local

           Range-Separation Parameters        
           ---------------------------
           Alpha           :  0.00
           Beta            :  1.00
           Gamma           :  0.32
           Short-Range HF  :     F

             Grid Information
             ----------------
          Grid used for XC integration:  fine      
          Radial quadrature: Mura-Knowles        
          Angular quadrature: Lebedev. 
          Tag              B.-S. Rad. Rad. Pts. Rad. Cut. Ang. Pts.
          ---              ---------- --------- --------- ---------
          S                   1.00      123          10.0       770
          Grid pruning is: on 
          Number of quadrature shells:   123
          Spatial weights used:  Erf1

          Convergence Information
          -----------------------
          Convergence aids based upon iterative change in 
          total energy or number of iterations. 
          Levelshifting, if invoked, occurs when the 
          HOMO/LUMO gap drops below (HL_TOL):  1.00D-02
          DIIS, if invoked, will attempt to extrapolate 
          using up to (NFOCK): 10 stored Fock matrices.

                    Damping( 0%)  Levelshifting(0.5)       DIIS
                  --------------- ------------------- ---------------
          dE  on:    start            ASAP                start   
          dE off:    2 iters         50 iters            50 iters 


      Screening Tolerance Information
      -------------------------------
          Density screening/tol_rho:  1.00D-10
          AO Gaussian exp screening on grid/accAOfunc:  14
          CD Gaussian exp screening on grid/accCDfunc:  20
          XC Gaussian exp screening on grid/accXCfunc:  20
          Schwarz screening/accCoul:  1.00D-08



                         Geometry "geometry" -> "geometry"
                         ---------------------------------

 Output coordinates in angstroms (scale by  1.889725989 to convert to a.u.)

  No.       Tag          Charge          X              Y              Z
 ---- ---------------- ---------- -------------- -------------- --------------
    1 S                   16.0000     0.00000000     0.00000000     0.00000000

      Atomic Mass 
      ----------- 

      S                 31.972070


 Effective nuclear repulsion energy (a.u.)       0.0000000000

            Nuclear Dipole moment (a.u.) 
            ----------------------------
        X                 Y               Z
 ---------------- ---------------- ----------------
     0.0000000000     0.0000000000     0.0000000000

  
  CAM type calculations without CDFIT are
  only available with the direct option.
  Forcing Direct SCF
  


     <<<<<<    Before call to DFT_SCF.    >>>>>>
     <<<<<< date:  May  8  time: 11:54:53 >>>>>>


 Setting tolerance for linear dependence to 1.00D-05

 Setting tolerance for linear dependence to 1.00D-05


 Setting tolerance for linear dependence to 1.00D-05

 Setting tolerance for linear dependence to 1.00D-05

 Setting tolerance for linear dependence to 1.00D-05

 Setting tolerance for linear dependence to 1.00D-05

 Setting tolerance for linear dependence to 1.00D-05
 Setting tolerance for linear dependence to 1.00D-05
  lindep tolerance =    1.0000000000000001E-005
  lindep tolerance =    1.0000000000000001E-005
  lindep tolerance =    1.0000000000000001E-005
  lindep tolerance =    1.0000000000000001E-005
  lindep tolerance =    1.0000000000000001E-005
  lindep tolerance =    1.0000000000000001E-005
  lindep tolerance =    1.0000000000000001E-005
  lindep tolerance =    1.0000000000000001E-005


     <<<<<<    Before 3c-2e initialize.   >>>>>>
     <<<<<< date:  May  8  time: 11:54:53 >>>>>>


 Setting fock-build task_bf   :      -1
                    maxquartet:   10000
                    maxeri    :  129600
                    maxscr    :       0
                    intacc    : 0.0D+00
                    denscreen : T
                    dentol    : 1.0D-06


      Superposition of Atomic Density Guess
      -------------------------------------

 Sum of atomic energies:        -397.48708453

      Non-variational initial energy
      ------------------------------

 Total energy =    -397.194008
 1-e energy   =    -549.333853
 2-e energy   =     152.139845
 HOMO         =      -0.286261
 LUMO         =      -0.286261


 Setting fock-build task_bf   :      -1
                    maxquartet:   10000
                    maxeri    :  129600
                    maxscr    :       0
                    intacc    : 0.0D+00
                    denscreen : T
                    dentol    : 1.0D-06


 Wrote molecular orbitals to ./s.movecs

  WARNING: movecs_in_org=atomic not equal to movecs_in=./s.movecs
   Time after variat. SCF:      0.8

 Setting fock-build task_bf   :      -1
                    maxquartet:   10000
                    maxeri    :  129600
                    maxscr    :       0
                    intacc    : 0.0D+00
                    denscreen : T
                    dentol    : 1.0D-06

   Time prior to 1st pass:      0.8


     <<<<<<      Before SCF iter loop.    >>>>>>
     <<<<<< date:  May  8  time: 11:54:54 >>>>>>

           DAMPING=T LEVELSHIFTING=F DIISING=T
          itol2e= 8 iAOacc=12 iXCacc=20


     <<<<<<            calling 1-e int    >>>>>>
     <<<<<< date:  May  8  time: 11:54:54 >>>>>>

    Kinetic Matrix Time:          0.0s

           Kinetic energy =    396.977165237124

    Potential Matrix Time:          0.0s


     <<<<<<    Before call to GETVXC.     >>>>>>
     <<<<<< date:  May  8  time: 11:54:54 >>>>>>



     <<<<<<    Before call to fock_2e.    >>>>>>
     <<<<<< date:  May  8  time: 11:54:54 >>>>>>



     <<<<<<     After call to fock_2e.    >>>>>>
     <<<<<< date:  May  8  time: 11:54:54 >>>>>>

    Fock_2e Build Time:          0.2s
  *** grid_quadv0:                    calc_type:                    1
  *** grid_quadv0:                    grid_written: F
  *** grid_quadv0:                    grad: T
  *** grid_quadv0:                    calc_type:                    1
  *** grid_quadv0:                    grid_written: F
  *** grid_quadv0:                    grad: T
  *** grid_quadv0:                    kske: F
  *** grid_quadv0:                    kslap: F
  *** grid_quadv0:                    do_scf: T
  *** grid_quadv0:                    fde_option:                    0
  *** grid_quadv0:                    n_per_rec:                 3070
  *** grid_quadv0:                    calc_type:                    1
  *** grid_quadv0:                    grid_written: F
  *** grid_quadv0:                    grad: T
  *** grid_quadv0:                    kske: F
  *** grid_quadv0:                    kslap: F
  *** grid_quadv0:                    do_scf: T
  *** grid_quadv0:                    fde_option:                    0
  *** grid_quadv0:                    n_per_rec:                 3070
  *** grid_quadv0:                    calc_type:                    1
  *** grid_quadv0:                    grid_written: F
  *** grid_quadv0:                    grad: T
  *** grid_quadv0:                    kske: F
  *** grid_quadv0:                    kslap: F
  *** grid_quadv0:                    do_scf: T
  *** grid_quadv0:                    fde_option:                    0
  *** grid_quadv0:                    n_per_rec:                 3070
  *** grid_quadv0:                    kske: F
  *** grid_quadv0:                    kslap: F
  *** grid_quadv0:                    do_scf: T
  *** grid_quadv0:                    fde_option:                    0
  *** grid_quadv0:                    n_per_rec:                 3070
  *** grid_quadv0:                    calc_type:                    1
  *** grid_quadv0:                    grid_written: F
  *** grid_quadv0:                    grad: T
  *** grid_quadv0:                    kske: F
  *** grid_quadv0:                    kslap: F
  *** grid_quadv0:                    do_scf: T
  *** grid_quadv0:                    fde_option:                    0
  *** grid_quadv0:                    n_per_rec:                 3070
  *** grid_quadv0:                    calc_type:                    1
  *** grid_quadv0:                    grid_written: F
  *** grid_quadv0:                    grad: T
  *** grid_quadv0:                    kske: F
  *** grid_quadv0:                    kslap: F
  *** grid_quadv0:                    do_scf: T
  *** grid_quadv0:                    fde_option:                    0
  *** grid_quadv0:                    n_per_rec:                 3070
  *** grid_quadv0:                    calc_type:                    1
  *** grid_quadv0:                    grid_written: F
  *** grid_quadv0:                    grad: T
  *** grid_quadv0:                    kske: F
  *** grid_quadv0:                    kslap: F
  *** grid_quadv0:                    do_scf: T
  *** grid_quadv0:                    fde_option:                    0
  *** grid_quadv0:                    n_per_rec:                 3070
  *** grid_quadv0:                    calc_type:                    1
  *** grid_quadv0:                    grid_written: F
  *** grid_quadv0:                    grad: T
  *** grid_quadv0:                    kske: F
  *** grid_quadv0:                    kslap: F
  *** grid_quadv0:                    do_scf: T
  *** grid_quadv0:                    fde_option:                    0
  *** grid_quadv0:                    n_per_rec:                 3070
   0: nuse=   8 avail= 12500000Mb on .
   1: nuse=   8 avail= 12500000Mb on .
   2: nuse=   8 avail= 12500000Mb on .
   3: nuse=   8 avail= 12500000Mb on .
   4: nuse=   8 avail= 12500000Mb on .
   5: nuse=   8 avail= 12500000Mb on .
   6: nuse=   8 avail= 12500000Mb on .
   7: nuse=   8 avail= 12500000Mb on .
 l_cube input   11.00

  atom type   l_cube   no. cubes   segmts   rad   sub
 ----------- -------- ----------- -------- ----- -----
        1     12.00        34         3      18     8

 Grid_pts file          = ./s.gridpts.0
 Record size in doubles =  12289        No. of grid_pts per rec  =   3070
 Max. records in memory =      6        Max. recs in file   = 126656358

 me   0 NQTOTC NQ/cube    8093     476
 me   1 NQTOTC NQ/cube    5140    1285
 me   2 NQTOTC NQ/cube    5587    2793
 me   3 NQTOTC NQ/cube    5609    2804
 me   4 NQTOTC NQ/cube    4882    4882
 me   5 NQTOTC NQ/cube    4481    2240
 me   6 NQTOTC NQ/cube    5078    2539
 me   7 NQTOTC NQ/cube    4144    1036

 XC quadr. integrated density :      16.000000 npts:    42914 nctrs:        1

    Fock_xc Build Time:          0.1s


     <<<<<<    Before call to GETVCOUL.   >>>>>>
     <<<<<< date:  May  8  time: 11:54:54 >>>>>>



     <<<<<<    End of parallel region.    >>>>>>
     <<<<<< date:  May  8  time: 11:54:54 >>>>>>

    Total Fock Matrix Build Time:          0.3s
 Etnew, Ecore, Ecoul, Exc(1), Exc(2), Totsic:   -397.95616481615781       -548.40086915668098        175.84715998512402       -25.402455644600821        0.0000000000000000        0.0000000000000000     
  delta =   -397.95616481615781     
  delta =   -397.95616481615781     


         Total DFT energy =     -397.956164816158
      One electron energy =     -548.400869156681
           Coulomb energy =      175.847159985124
    Exchange-Corr. energy =      -25.402455644601
 Nuclear repulsion energy =        0.000000000000

  delta =   -397.95616481615781     
  delta =   -397.95616481615781     
  delta =   -397.95616481615781     
  delta =   -397.95616481615781     
  delta =   -397.95616481615781     
  delta =   -397.95616481615781     
 Numeric. integr. density =       15.999999999413

     Total iterative time =      2.1s




     <<<<<<        calling diis driver    >>>>>>
     <<<<<< date:  May  8  time: 11:54:54 >>>>>>

 nhist                     1  pulay matrix 
   0.0000E+00
  -1.0000E+00   1.4250E-01


     <<<<<<         called diis driver    >>>>>>
     <<<<<< date:  May  8  time: 11:54:54 >>>>>>


 global array: fock transf[1:59,1:59],  handle: -940 

            1           2           3           4           5           6  
       ----------- ----------- ----------- ----------- ----------- -----------
   1       3.41504    -0.00000     0.00000     0.00000    -1.03761     0.00000
   2      -0.00000     3.58981     0.00054     0.00024    -0.00000    -0.42555
   3       0.00000     0.00054     3.60668     0.00812     0.00000     0.76588
   4       0.00000     0.00024     0.00812     3.59361    -0.00000     0.03403
   5      -1.03761    -0.00000     0.00000    -0.00000     5.29965    -0.00000
   6       0.00000    -0.42555     0.76588     0.03403    -0.00000     1.18969
   7      -0.00000     0.76007     0.42869     0.04052    -0.00000     0.00494
   8      -0.00000     0.01860     0.04173    -0.87131     0.00000    -0.00469
   9       0.35059     0.00000    -0.00000    -0.00000    -0.90850    -0.00000
  10       0.00000    -0.00302    -0.00059     0.00017     0.00000     0.00145
  11      -1.11477    -0.00000     0.00000     0.00000     0.68614    -0.00000
  12       0.00000     0.00071     0.00228     0.00322    -0.00000     0.00217
  13       0.00000     0.00085     0.00154    -0.00041    -0.00000     0.00065
  14      -0.00000     0.00144    -0.00150    -0.00217     0.00000    -0.00259
  15       0.00003    -0.00000    -0.00000     0.00000    -0.00009    -0.00000
  16      -0.00173     0.00000    -0.00000     0.00000     0.00572    -0.00000
  17       0.00034    -0.00000    -0.00000    -0.00000    -0.00112    -0.00000
  18      -0.00000     0.11406     0.00841     0.01014     0.00000    -0.15626
  19       0.00000    -0.01231     0.06272     0.09585     0.00000     0.20565
  20       0.00000     0.00122     0.09148    -0.05990    -0.00000     0.25658
  21      -0.00000     0.00100     0.00017    -0.00007    -0.00000    -0.00032
  22       0.00162     0.00000     0.00000     0.00000    -0.00536    -0.00000
  23      -0.00005     0.00000    -0.00000    -0.00000     0.00017     0.00000
  24      -0.00000     0.29177    -0.01886    -0.45697    -0.00000    -0.24224
  25      -0.00000     0.45198     0.08521     0.28758    -0.00000    -0.18921
  26      -0.00000     0.06157    -0.54076     0.05804     0.00000    -0.68994
  27      -0.00000     0.00005     0.00047     0.00098    -0.00000     0.00028
  28       0.00000     0.00060     0.00018    -0.00020     0.00000    -0.00015
  29       0.00000     0.00009    -0.00046    -0.00043     0.00000    -0.00030
  30       0.00039    -0.00000     0.00000    -0.00000    -0.00104    -0.00000
  31       0.00068     0.00000     0.00000    -0.00000    -0.00180     0.00000
  32       0.00026    -0.00000     0.00000    -0.00000    -0.00069    -0.00000
  33      -0.00000     0.04736     0.04993    -0.00644    -0.00000     0.03856
  34      -0.00000     0.04862    -0.05005     0.00291     0.00000    -0.13204
  35      -0.00000    -0.00276    -0.00702    -0.06848     0.00000    -0.01474
  36      -0.01524    -0.00000     0.00000     0.00000     0.35223    -0.00000
  37      -0.00000     0.07490     0.01135     0.06155     0.00000     0.00568
  38       0.00000    -0.01369     0.09581    -0.00341     0.00000    -0.02925
  39      -0.00000     0.06143     0.00708    -0.07574    -0.00000     0.00915
  40      -0.00074    -0.00000    -0.00000     0.00000     0.00196     0.00000
  41       0.00018    -0.00000     0.00000     0.00000    -0.00047    -0.00000
  42       0.00011    -0.00000    -0.00000     0.00000    -0.00058    -0.00000
  43       0.00001    -0.00000     0.00000     0.00000    -0.00004    -0.00000
  44      -0.00000    -0.00000    -0.00000    -0.00000     0.00002     0.00000
  45       0.04885     0.00000    -0.00000    -0.00000     0.15760    -0.00000
  46       0.00000     0.00432    -0.04444     0.00016     0.00000    -0.08623
  47       0.00000     0.03641     0.00271    -0.01886    -0.00000    -0.03567
  48      -0.00000    -0.01846    -0.00538    -0.03747     0.00000     0.00837
  49       0.00007    -0.00000    -0.00000    -0.00000    -0.00036    -0.00000
  50       0.00007    -0.00000    -0.00000     0.00000    -0.00040    -0.00000
  51      -0.10929    -0.00000     0.00000     0.00000    -0.06623    -0.00000
  52      -0.00000     0.01832     0.00373     0.03963     0.00000    -0.00675
  53      -0.00000     0.03888    -0.00823    -0.01784     0.00000    -0.04140
  54      -0.00000    -0.00575    -0.04419     0.00515    -0.00000    -0.05351
  55      -0.04530    -0.00000     0.00000     0.00000     0.24768     0.00000
  56       0.00000    -0.01145     0.03975     0.00113     0.00000     0.02306
  57      -0.00000     0.01150     0.00404     0.03870     0.00000     0.00008
  58      -0.00000     0.03673     0.01135    -0.01175     0.00000    -0.00477
  59       0.03416     0.00000    -0.00000    -0.00000    -0.10819    -0.00000

            7           8           9          10          11          12  
       ----------- ----------- ----------- ----------- ----------- -----------
   1      -0.00000    -0.00000     0.35059     0.00000    -1.11477     0.00000
   2       0.76007     0.01860     0.00000    -0.00302    -0.00000     0.00071
   3       0.42869     0.04173    -0.00000    -0.00059     0.00000     0.00228
   4       0.04052    -0.87131    -0.00000     0.00017     0.00000     0.00322
   5      -0.00000     0.00000    -0.90850     0.00000     0.68614    -0.00000
   6       0.00494    -0.00469    -0.00000     0.00145    -0.00000     0.00217
   7       1.18546    -0.00270    -0.00000    -0.00446     0.00000     0.00265
   8      -0.00270     1.18383    -0.00000    -0.00040     0.00000    -0.00385
   9      -0.00000    -0.00000     0.85648    -0.00000    -1.21810    -0.00000
  10      -0.00446    -0.00040    -0.00000     1.74381    -0.00000    -0.00005
  11       0.00000     0.00000    -1.21810    -0.00000     4.62060    -0.00000
  12       0.00265    -0.00385    -0.00000    -0.00005    -0.00000     1.75203
  13       0.00210    -0.00013    -0.00000    -0.00006     0.00000     0.00283
  14       0.00082     0.00325     0.00000    -0.00008     0.00000    -0.00750
  15       0.00000     0.00000     0.00007     0.00000     0.00001    -0.00000
  16       0.00000     0.00000    -0.00434    -0.00000    -0.00042    -0.00000
  17       0.00000     0.00000     0.00085    -0.00000     0.00008     0.00000
  18       0.33174    -0.02424     0.00000    -0.01400    -0.00000     0.00478
  19       0.07644    -0.29607    -0.00000     0.00067     0.00000     0.00503
  20       0.13968     0.21370    -0.00000    -0.00275     0.00000     0.00048
  21       0.00086     0.00009     0.00000    -0.56359     0.00000    -0.00007
  22       0.00000     0.00000     0.00407     0.00000     0.00040     0.00000
  23      -0.00000     0.00000    -0.00013     0.00000    -0.00001     0.00000
  24       0.31185     0.63866     0.00000     0.00005     0.00000    -0.00293
  25       0.62075    -0.37769     0.00000     0.00005    -0.00000     0.00182
  26      -0.28634    -0.11721     0.00000     0.00000    -0.00000    -0.00195
  27       0.00023    -0.00073    -0.00000     0.00002    -0.00000     0.53511
  28       0.00054     0.00018    -0.00000     0.00014     0.00000     0.18845
  29      -0.00011     0.00042    -0.00000     0.00000    -0.00000    -0.01235
  30      -0.00000     0.00000     0.00061    -0.00000    -0.00251    -0.00000
  31      -0.00000     0.00000     0.00105     0.00000    -0.00436     0.00000
  32       0.00000    -0.00000     0.00040    -0.00000    -0.00167    -0.00000
  33       0.13011     0.01948     0.00000     0.00346     0.00000    -0.00048
  34       0.03698    -0.00801    -0.00000     0.00236     0.00000    -0.00162
  35      -0.01770     0.13480     0.00000     0.00000    -0.00000    -0.00153
  36       0.00000     0.00000    -0.34876    -0.00000    -0.11616     0.00000
  37      -0.02321     0.01830     0.00000     0.00471    -0.00000    -0.00473
  38      -0.01213    -0.00031     0.00000     0.00038     0.00000    -0.00322
  39      -0.01563    -0.02351    -0.00000     0.00426     0.00000     0.00247
  40      -0.00000    -0.00000    -0.00114    -0.00000     0.00474     0.00000
  41      -0.00000    -0.00000     0.00028    -0.00000    -0.00114     0.00000
  42       0.00000     0.00000    -0.00006     0.00000     0.00448    -0.00000
  43       0.00000     0.00000    -0.00000    -0.00000     0.00029     0.00000
  44      -0.00000    -0.00000     0.00000     0.00000    -0.00019     0.00000
  45      -0.00000     0.00000     0.06356    -0.00000    -1.78407    -0.00000
  46      -0.03734    -0.00653    -0.00000     0.00063     0.00000    -0.00547
  47       0.07255     0.04389     0.00000    -0.00621     0.00000    -0.00200
  48      -0.04453     0.08086     0.00000     0.00279    -0.00000    -0.00862
  49      -0.00000    -0.00000    -0.00004     0.00000     0.00278    -0.00000
  50      -0.00000    -0.00000    -0.00004     0.00000     0.00306    -0.00000
  51      -0.00000    -0.00000    -0.01274     0.00000     0.88177     0.00000
  52       0.03051    -0.06046     0.00000    -0.00271    -0.00000     0.00864
  53       0.04597     0.02845    -0.00000    -0.00620    -0.00000    -0.00301
  54      -0.04041    -0.01164     0.00000     0.00236    -0.00000    -0.00503
  55       0.00000     0.00000    -0.06016     0.00000    -0.36432    -0.00000
  56       0.00560    -0.00006     0.00000     0.00061    -0.00000     0.00425
  57       0.00803    -0.02168     0.00000    -0.00141    -0.00000     0.00739
  58       0.02108     0.00733    -0.00000    -0.00568    -0.00000     0.00043
  59      -0.00000    -0.00000     0.05361     0.00000     0.02489     0.00000

           13          14          15          16          17          18  
       ----------- ----------- ----------- ----------- ----------- -----------
   1       0.00000    -0.00000     0.00003    -0.00173     0.00034    -0.00000
   2       0.00085     0.00144    -0.00000     0.00000    -0.00000     0.11406
   3       0.00154    -0.00150    -0.00000    -0.00000    -0.00000     0.00841
   4      -0.00041    -0.00217     0.00000     0.00000    -0.00000     0.01014
   5      -0.00000     0.00000    -0.00009     0.00572    -0.00112     0.00000
   6       0.00065    -0.00259    -0.00000    -0.00000    -0.00000    -0.15626
   7       0.00210     0.00082     0.00000     0.00000     0.00000     0.33174
   8      -0.00013     0.00325     0.00000     0.00000     0.00000    -0.02424
   9      -0.00000     0.00000     0.00007    -0.00434     0.00085     0.00000
  10      -0.00006    -0.00008     0.00000    -0.00000    -0.00000    -0.01400
  11       0.00000     0.00000     0.00001    -0.00042     0.00008    -0.00000
  12       0.00283    -0.00750    -0.00000    -0.00000     0.00000     0.00478
  13       1.73608     0.00556     0.00000    -0.00000    -0.00000     0.00679
  14       0.00556     1.74328    -0.00000     0.00000    -0.00000     0.00430
  15       0.00000    -0.00000     1.34320    -0.00210    -0.00706     0.00000
  16      -0.00000     0.00000    -0.00210     1.34681    -0.00245     0.00000
  17      -0.00000    -0.00000    -0.00706    -0.00245     1.33010     0.00000
  18       0.00679     0.00430     0.00000     0.00000     0.00000     1.70832
  19       0.00453    -0.00798    -0.00000    -0.00000     0.00000     0.00080
  20      -0.00565     0.00570     0.00000     0.00000     0.00000    -0.00014
  21      -0.00009    -0.00010    -0.00000     0.00000     0.00000     0.00774
  22       0.00000    -0.00000    -0.00065    -0.00716     0.00250    -0.00000
  23       0.00000    -0.00000    -0.00192    -0.00616     0.00126    -0.00000
  24       0.00187     0.00050     0.00000     0.00000    -0.00000     0.05806
  25      -0.00166    -0.00014    -0.00000    -0.00000     0.00000     0.11279
  26      -0.00314     0.00241    -0.00000    -0.00000     0.00000     0.00492
  27      -0.13358    -0.13586    -0.00000    -0.00000     0.00000     0.00105
  28       0.36052     0.39044    -0.00000    -0.00000    -0.00000     0.00488
  29      -0.40715     0.38275     0.00000    -0.00000     0.00000    -0.00101
  30      -0.00000    -0.00000    -0.39304    -0.21087     0.34843    -0.00000
  31       0.00000    -0.00000     0.08440    -0.51629    -0.21494     0.00000
  32       0.00000    -0.00000     0.39744    -0.10157     0.38125    -0.00000
  33       0.00066    -0.00258    -0.00000    -0.00000    -0.00000    -0.39557
  34      -0.00376     0.00080    -0.00000    -0.00000    -0.00000    -0.36264
  35       0.00431    -0.00225    -0.00000    -0.00000     0.00000     0.07401
  36      -0.00000     0.00000    -0.00022     0.01455    -0.00285    -0.00000
  37      -0.00239     0.00095    -0.00000    -0.00000    -0.00000    -0.04142
  38      -0.00139     0.00212     0.00000     0.00000     0.00000     0.00263
  39      -0.00081    -0.00500     0.00000    -0.00000    -0.00000    -0.02868
  40      -0.00000     0.00000     0.00046     0.00367    -0.00121     0.00000
  41       0.00000    -0.00000     0.00078     0.00206    -0.00033     0.00000
  42      -0.00000     0.00000     0.00035     0.00719    -0.00210    -0.00000
  43      -0.00000    -0.00000    -0.00763     0.00051     0.00142     0.00000
  44      -0.00000     0.00000    -0.00325    -0.00221    -0.01007     0.00000
  45       0.00000    -0.00000     0.00000    -0.00033     0.00006    -0.00000
  46      -0.00427     0.00437     0.00000    -0.00000    -0.00000     0.00119
  47       0.00262     0.00490     0.00000     0.00000     0.00000     0.08429
  48       0.00051     0.00330     0.00000     0.00000    -0.00000    -0.05193
  49      -0.00000     0.00000     0.00017    -0.00007     0.00012     0.00000
  50       0.00000    -0.00000    -0.00028    -0.00160     0.00045     0.00000
  51      -0.00000     0.00000     0.00001    -0.00073     0.00014    -0.00000
  52      -0.00036    -0.00352     0.00000     0.00000    -0.00000    -0.12601
  53       0.00150     0.00592    -0.00000    -0.00000    -0.00000    -0.20842
  54      -0.00466     0.00295     0.00000     0.00000     0.00000     0.04108
  55       0.00000    -0.00000    -0.00013     0.00862    -0.00169    -0.00000
  56       0.00301    -0.00409    -0.00000     0.00000     0.00000     0.00938
  57      -0.00083    -0.00341    -0.00000     0.00000    -0.00000    -0.01142
  58       0.00278     0.00293    -0.00000    -0.00000    -0.00000    -0.02429
  59      -0.00000     0.00000    -0.00001     0.00095    -0.00019    -0.00000

           19          20          21          22          23          24  
       ----------- ----------- ----------- ----------- ----------- -----------
   1       0.00000     0.00000    -0.00000     0.00162    -0.00005    -0.00000
   2      -0.01231     0.00122     0.00100     0.00000     0.00000     0.29177
   3       0.06272     0.09148     0.00017     0.00000    -0.00000    -0.01886
   4       0.09585    -0.05990    -0.00007     0.00000    -0.00000    -0.45697
   5       0.00000    -0.00000    -0.00000    -0.00536     0.00017    -0.00000
   6       0.20565     0.25658    -0.00032    -0.00000     0.00000    -0.24224
   7       0.07644     0.13968     0.00086     0.00000    -0.00000     0.31185
   8      -0.29607     0.21370     0.00009     0.00000     0.00000     0.63866
   9      -0.00000    -0.00000     0.00000     0.00407    -0.00013     0.00000
  10       0.00067    -0.00275    -0.56359     0.00000     0.00000     0.00005
  11       0.00000     0.00000     0.00000     0.00040    -0.00001     0.00000
  12       0.00503     0.00048    -0.00007     0.00000     0.00000    -0.00293
  13       0.00453    -0.00565    -0.00009     0.00000     0.00000     0.00187
  14      -0.00798     0.00570    -0.00010    -0.00000    -0.00000     0.00050
  15      -0.00000     0.00000    -0.00000    -0.00065    -0.00192     0.00000
  16      -0.00000     0.00000     0.00000    -0.00716    -0.00616     0.00000
  17       0.00000     0.00000     0.00000     0.00250     0.00126    -0.00000
  18       0.00080    -0.00014     0.00774    -0.00000    -0.00000     0.05806
  19       1.71495     0.00440    -0.00039     0.00000     0.00000    -0.10062
  20       0.00440     1.71396     0.00150     0.00000     0.00000     0.05124
  21      -0.00039     0.00150     1.07925    -0.00000    -0.00000     0.00296
  22       0.00000     0.00000    -0.00000     1.34546    -0.00742    -0.00000
  23       0.00000     0.00000    -0.00000    -0.00742     1.33465    -0.00000
  24      -0.10062     0.05124     0.00296    -0.00000    -0.00000     1.97729
  25       0.05757    -0.01607     0.00425    -0.00000    -0.00000    -0.00470
  26      -0.06253    -0.10659    -0.00045    -0.00000    -0.00000     0.00879
  27       0.00358     0.00018     0.00001     0.00000     0.00000    -0.00452
  28      -0.00055     0.00052     0.00013    -0.00000    -0.00000     0.00243
  29      -0.00503     0.00372     0.00001     0.00000     0.00000     0.00237
  30      -0.00000     0.00000     0.00000     0.00207     0.00198     0.00000
  31      -0.00000     0.00000    -0.00000     0.00242     0.00218     0.00000
  32       0.00000    -0.00000    -0.00000     0.00112     0.00027    -0.00000
  33      -0.12528    -0.35249    -0.01285     0.00000    -0.00000     0.07808
  34       0.23392     0.33677    -0.00861    -0.00000     0.00000     0.06400
  35       0.47544    -0.25372     0.00004    -0.00000     0.00000     0.14635
  36       0.00000    -0.00000    -0.00000    -0.01364     0.00043    -0.00000
  37      -0.02519     0.01008    -0.00502     0.00000    -0.00000    -0.04878
  38      -0.02453    -0.03489    -0.00038     0.00000     0.00000    -0.03597
  39       0.03359    -0.02249    -0.00457    -0.00000    -0.00000     0.38234
  40      -0.00000    -0.00000    -0.00000    -0.55373    -0.11107    -0.00000
  41       0.00000     0.00000     0.00000     0.11857    -0.55037     0.00000
  42       0.00000    -0.00000     0.00000     0.00133     0.00102     0.00000
  43       0.00000    -0.00000     0.00000    -0.00008    -0.00025    -0.00000
  44      -0.00000     0.00000    -0.00000     0.00008    -0.00012    -0.00000
  45      -0.00000    -0.00000    -0.00000     0.00031    -0.00001    -0.00000
  46      -0.05044    -0.07053    -0.00034     0.00000     0.00000     0.03336
  47      -0.04244     0.02945     0.00366    -0.00000     0.00000     0.52500
  48      -0.07392     0.03352    -0.00163    -0.00000     0.00000     0.31333
  49      -0.00000     0.00000    -0.00000    -0.00411     0.00653     0.00000
  50       0.00000     0.00000    -0.00000    -0.00668    -0.00712     0.00000
  51       0.00000     0.00000    -0.00000     0.00069    -0.00002    -0.00000
  52      -0.18355     0.11554     0.00100    -0.00000     0.00000     0.36247
  53       0.13303    -0.01529     0.00234     0.00000    -0.00000    -0.56223
  54       0.10402     0.23587    -0.00086    -0.00000     0.00000     0.10093
  55       0.00000    -0.00000    -0.00000    -0.00807     0.00026    -0.00000
  56      -0.01646    -0.03425    -0.00124     0.00000     0.00000    -0.02409
  57      -0.02183     0.02006     0.00325     0.00000    -0.00000    -0.07476
  58       0.00605    -0.01340     0.01285    -0.00000    -0.00000     0.08228
  59       0.00000    -0.00000     0.00000    -0.00089     0.00003     0.00000

           25          26          27          28          29          30  
       ----------- ----------- ----------- ----------- ----------- -----------
   1      -0.00000    -0.00000    -0.00000     0.00000     0.00000     0.00039
   2       0.45198     0.06157     0.00005     0.00060     0.00009    -0.00000
   3       0.08521    -0.54076     0.00047     0.00018    -0.00046     0.00000
   4       0.28758     0.05804     0.00098    -0.00020    -0.00043    -0.00000
   5      -0.00000     0.00000    -0.00000     0.00000     0.00000    -0.00104
   6      -0.18921    -0.68994     0.00028    -0.00015    -0.00030    -0.00000
   7       0.62075    -0.28634     0.00023     0.00054    -0.00011    -0.00000
   8      -0.37769    -0.11721    -0.00073     0.00018     0.00042     0.00000
   9       0.00000     0.00000    -0.00000    -0.00000    -0.00000     0.00061
  10       0.00005     0.00000     0.00002     0.00014     0.00000    -0.00000
  11      -0.00000    -0.00000    -0.00000     0.00000    -0.00000    -0.00251
  12       0.00182    -0.00195     0.53511     0.18845    -0.01235    -0.00000
  13      -0.00166    -0.00314    -0.13358     0.36052    -0.40715    -0.00000
  14      -0.00014     0.00241    -0.13586     0.39044     0.38275    -0.00000
  15      -0.00000    -0.00000    -0.00000    -0.00000     0.00000    -0.39304
  16      -0.00000    -0.00000    -0.00000    -0.00000    -0.00000    -0.21087
  17       0.00000     0.00000     0.00000    -0.00000     0.00000     0.34843
  18       0.11279     0.00492     0.00105     0.00488    -0.00101    -0.00000
  19       0.05757    -0.06253     0.00358    -0.00055    -0.00503    -0.00000
  20      -0.01607    -0.10659     0.00018     0.00052     0.00372     0.00000
  21       0.00425    -0.00045     0.00001     0.00013     0.00001     0.00000
  22      -0.00000    -0.00000     0.00000    -0.00000     0.00000     0.00207
  23      -0.00000    -0.00000     0.00000    -0.00000     0.00000     0.00198
  24      -0.00470     0.00879    -0.00452     0.00243     0.00237     0.00000
  25       1.97742    -0.00887     0.00358     0.00218    -0.00140    -0.00000
  26      -0.00887     1.99710    -0.00254    -0.00075     0.00263    -0.00000
  27       0.00358    -0.00254     1.09091    -0.00089    -0.01001    -0.00000
  28       0.00218    -0.00075    -0.00089     1.07945     0.00072     0.00000
  29      -0.00140     0.00263    -0.01001     0.00072     1.06731     0.00000
  30      -0.00000    -0.00000    -0.00000     0.00000     0.00000     0.88605
  31      -0.00000    -0.00000    -0.00000    -0.00000     0.00000     0.00203
  32       0.00000     0.00000     0.00000    -0.00000    -0.00000    -0.00496
  33       0.11177    -0.11607    -0.00298    -0.00704    -0.00226     0.00000
  34       0.09155     0.14537     0.00121    -0.00676     0.00352     0.00000
  35      -0.10249    -0.00645     0.00424     0.00039    -0.01315     0.00000
  36      -0.00000    -0.00000     0.00000    -0.00000    -0.00000    -0.00295
  37       0.38415     0.00947    -0.00072    -0.00352     0.00447    -0.00000
  38       0.01276    -0.39159    -0.00040     0.00084    -0.00301     0.00000
  39       0.04705    -0.02882    -0.00028    -0.00250    -0.00464     0.00000
  40       0.00000    -0.00000     0.00000     0.00000     0.00000    -0.00691
  41      -0.00000    -0.00000    -0.00000    -0.00000     0.00000    -0.00431
  42      -0.00000    -0.00000    -0.00000    -0.00000    -0.00000    -0.10161
  43      -0.00000     0.00000     0.00000     0.00000     0.00000     0.14834
  44       0.00000     0.00000     0.00000     0.00000     0.00000    -0.05757
  45      -0.00000     0.00000     0.00000    -0.00000    -0.00000     0.00008
  46      -0.02604     0.61806    -0.00297    -0.00095     0.00378    -0.00000
  47       0.31235    -0.01463    -0.00227     0.00261     0.00081     0.00000
  48      -0.52571    -0.03820    -0.00546    -0.00009     0.00098     0.00000
  49       0.00000    -0.00000    -0.00000     0.00000     0.00000     0.00032
  50       0.00000    -0.00000    -0.00000    -0.00000     0.00000    -0.00385
  51      -0.00000    -0.00000    -0.00000    -0.00000     0.00000    -0.00421
  52      -0.56885    -0.05001     0.00326     0.00008    -0.00079     0.00000
  53      -0.34222    -0.15680    -0.00163     0.00153     0.00106    -0.00000
  54       0.13227    -0.65519    -0.00141    -0.00095     0.00188     0.00000
  55       0.00000     0.00000     0.00000     0.00000    -0.00000    -0.00768
  56      -0.00736    -0.11473     0.01059     0.00135    -0.01233    -0.00000
  57       0.08653     0.00392     0.01868    -0.00096    -0.00441    -0.00000
  58       0.07364    -0.02362    -0.00202     0.00895    -0.00024     0.00000
  59       0.00000    -0.00000    -0.00000     0.00000     0.00000     0.00560

           31          32          33          34          35          36  
       ----------- ----------- ----------- ----------- ----------- -----------
   1       0.00068     0.00026    -0.00000    -0.00000    -0.00000    -0.01524
   2       0.00000    -0.00000     0.04736     0.04862    -0.00276    -0.00000
   3       0.00000     0.00000     0.04993    -0.05005    -0.00702     0.00000
   4      -0.00000    -0.00000    -0.00644     0.00291    -0.06848     0.00000
   5      -0.00180    -0.00069    -0.00000     0.00000     0.00000     0.35223
   6       0.00000    -0.00000     0.03856    -0.13204    -0.01474    -0.00000
   7      -0.00000     0.00000     0.13011     0.03698    -0.01770     0.00000
   8       0.00000    -0.00000     0.01948    -0.00801     0.13480     0.00000
   9       0.00105     0.00040     0.00000    -0.00000     0.00000    -0.34876
  10       0.00000    -0.00000     0.00346     0.00236     0.00000    -0.00000
  11      -0.00436    -0.00167     0.00000     0.00000    -0.00000    -0.11616
  12       0.00000    -0.00000    -0.00048    -0.00162    -0.00153     0.00000
  13       0.00000     0.00000     0.00066    -0.00376     0.00431    -0.00000
  14      -0.00000    -0.00000    -0.00258     0.00080    -0.00225     0.00000
  15       0.08440     0.39744    -0.00000    -0.00000    -0.00000    -0.00022
  16      -0.51629    -0.10157    -0.00000    -0.00000    -0.00000     0.01455
  17      -0.21494     0.38125    -0.00000    -0.00000     0.00000    -0.00285
  18       0.00000    -0.00000    -0.39557    -0.36264     0.07401    -0.00000
  19      -0.00000     0.00000    -0.12528     0.23392     0.47544     0.00000
  20       0.00000    -0.00000    -0.35249     0.33677    -0.25372    -0.00000
  21      -0.00000    -0.00000    -0.01285    -0.00861     0.00004    -0.00000
  22       0.00242     0.00112     0.00000    -0.00000    -0.00000    -0.01364
  23       0.00218     0.00027    -0.00000     0.00000     0.00000     0.00043
  24       0.00000    -0.00000     0.07808     0.06400     0.14635    -0.00000
  25      -0.00000     0.00000     0.11177     0.09155    -0.10249    -0.00000
  26      -0.00000     0.00000    -0.11607     0.14537    -0.00645    -0.00000
  27      -0.00000     0.00000    -0.00298     0.00121     0.00424     0.00000
  28      -0.00000    -0.00000    -0.00704    -0.00676     0.00039    -0.00000
  29       0.00000    -0.00000    -0.00226     0.00352    -0.01315    -0.00000
  30       0.00203    -0.00496     0.00000     0.00000     0.00000    -0.00295
  31       0.88483     0.01021     0.00000     0.00000     0.00000    -0.00512
  32       0.01021     0.86903     0.00000     0.00000    -0.00000    -0.00197
  33       0.00000     0.00000     0.95413    -0.00745    -0.00127    -0.00000
  34       0.00000     0.00000    -0.00745     0.95761     0.00056     0.00000
  35       0.00000    -0.00000    -0.00127     0.00056     0.95280    -0.00000
  36      -0.00512    -0.00197    -0.00000     0.00000    -0.00000     0.64756
  37      -0.00000     0.00000     0.18295     0.16045    -0.21959    -0.00000
  38       0.00000     0.00000     0.19946    -0.26320    -0.01810     0.00000
  39       0.00000     0.00000     0.18537     0.11917     0.24308    -0.00000
  40      -0.00797    -0.00326     0.00000    -0.00000    -0.00000     0.00557
  41      -0.00468    -0.00011     0.00000     0.00000     0.00000    -0.00134
  42      -0.14899    -0.05919     0.00000     0.00000     0.00000    -0.00316
  43      -0.06258    -0.10024     0.00000     0.00000     0.00000    -0.00021
  44       0.09627    -0.13810     0.00000     0.00000    -0.00000     0.00013
  45       0.00014     0.00005     0.00000    -0.00000    -0.00000     2.04132
  46      -0.00000     0.00000     0.00671    -0.00675    -0.00295     0.00000
  47       0.00000    -0.00000    -0.01620    -0.01291    -0.00802    -0.00000
  48      -0.00000    -0.00000     0.00812     0.00414    -0.01701     0.00000
  49       0.00030    -0.00065    -0.00000    -0.00000    -0.00000    -0.00196
  50      -0.00431    -0.00135    -0.00000     0.00000     0.00000    -0.00216
  51      -0.00731    -0.00281    -0.00000    -0.00000    -0.00000    -1.01102
  52      -0.00000    -0.00000     0.08068     0.09311    -0.29490     0.00000
  53       0.00000     0.00000     0.17084     0.23816     0.12282     0.00000
  54      -0.00000    -0.00000    -0.25856     0.19742    -0.01141    -0.00000
  55      -0.01335    -0.00512     0.00000     0.00000     0.00000     0.93775
  56      -0.00000    -0.00000     0.07306    -0.13146    -0.00156    -0.00000
  57      -0.00000     0.00000     0.01300     0.03272    -0.12664    -0.00000
  58       0.00000     0.00000     0.10905     0.05064     0.03207     0.00000
  59       0.00973     0.00374    -0.00000    -0.00000    -0.00000    -0.19942

           37          38          39          40          41          42  
       ----------- ----------- ----------- ----------- ----------- -----------
   1      -0.00000     0.00000    -0.00000    -0.00074     0.00018     0.00011
   2       0.07490    -0.01369     0.06143    -0.00000    -0.00000    -0.00000
   3       0.01135     0.09581     0.00708    -0.00000     0.00000    -0.00000
   4       0.06155    -0.00341    -0.07574     0.00000     0.00000     0.00000
   5       0.00000     0.00000    -0.00000     0.00196    -0.00047    -0.00058
   6       0.00568    -0.02925     0.00915     0.00000    -0.00000    -0.00000
   7      -0.02321    -0.01213    -0.01563    -0.00000    -0.00000     0.00000
   8       0.01830    -0.00031    -0.02351    -0.00000    -0.00000     0.00000
   9       0.00000     0.00000    -0.00000    -0.00114     0.00028    -0.00006
  10       0.00471     0.00038     0.00426    -0.00000    -0.00000     0.00000
  11      -0.00000     0.00000     0.00000     0.00474    -0.00114     0.00448
  12      -0.00473    -0.00322     0.00247     0.00000     0.00000    -0.00000
  13      -0.00239    -0.00139    -0.00081    -0.00000     0.00000    -0.00000
  14       0.00095     0.00212    -0.00500     0.00000    -0.00000     0.00000
  15      -0.00000     0.00000     0.00000     0.00046     0.00078     0.00035
  16      -0.00000     0.00000    -0.00000     0.00367     0.00206     0.00719
  17      -0.00000     0.00000    -0.00000    -0.00121    -0.00033    -0.00210
  18      -0.04142     0.00263    -0.02868     0.00000     0.00000    -0.00000
  19      -0.02519    -0.02453     0.03359    -0.00000     0.00000     0.00000
  20       0.01008    -0.03489    -0.02249    -0.00000     0.00000    -0.00000
  21      -0.00502    -0.00038    -0.00457    -0.00000     0.00000     0.00000
  22       0.00000     0.00000    -0.00000    -0.55373     0.11857     0.00133
  23      -0.00000     0.00000    -0.00000    -0.11107    -0.55037     0.00102
  24      -0.04878    -0.03597     0.38234    -0.00000     0.00000     0.00000
  25       0.38415     0.01276     0.04705     0.00000    -0.00000    -0.00000
  26       0.00947    -0.39159    -0.02882    -0.00000    -0.00000    -0.00000
  27      -0.00072    -0.00040    -0.00028     0.00000    -0.00000    -0.00000
  28      -0.00352     0.00084    -0.00250     0.00000    -0.00000    -0.00000
  29       0.00447    -0.00301    -0.00464     0.00000     0.00000    -0.00000
  30      -0.00000     0.00000     0.00000    -0.00691    -0.00431    -0.10161
  31      -0.00000     0.00000     0.00000    -0.00797    -0.00468    -0.14899
  32       0.00000     0.00000     0.00000    -0.00326    -0.00011    -0.05919
  33       0.18295     0.19946     0.18537     0.00000     0.00000     0.00000
  34       0.16045    -0.26320     0.11917    -0.00000     0.00000     0.00000
  35      -0.21959    -0.01810     0.24308    -0.00000     0.00000     0.00000
  36      -0.00000     0.00000    -0.00000     0.00557    -0.00134    -0.00316
  37       0.52886     0.00416    -0.00261    -0.00000    -0.00000    -0.00000
  38       0.00416     0.54430    -0.00248    -0.00000    -0.00000    -0.00000
  39      -0.00261    -0.00248     0.52729     0.00000    -0.00000     0.00000
  40      -0.00000    -0.00000     0.00000     0.88247    -0.01141     0.00505
  41      -0.00000    -0.00000    -0.00000    -0.01141     0.87749     0.00299
  42      -0.00000    -0.00000     0.00000     0.00505     0.00299     0.30948
  43      -0.00000    -0.00000     0.00000    -0.00054    -0.00087     0.00121
  44       0.00000    -0.00000     0.00000     0.00025    -0.00051    -0.00210
  45      -0.00000     0.00000     0.00000    -0.00015     0.00004    -0.00004
  46      -0.00372    -0.51224    -0.01933    -0.00000     0.00000    -0.00000
  47       0.20662    -0.01773     0.47021    -0.00000     0.00000    -0.00000
  48      -0.46992     0.00395     0.20678    -0.00000    -0.00000    -0.00000
[...]
  43     -13.37208    -0.74802     7.37235    -0.00000    -0.00000
  44      -0.00012     0.00658    -0.00056     0.00000    -0.00000
  45     -13.37253    -0.74918     7.36740    -0.00000    -0.00000
  46      -7.35033    -0.54844   -13.38683     0.00000    -0.00000
  47       0.92033   -15.25212     0.11957    -0.00000     0.00000
  48      -7.35041    -0.54896   -13.38841     0.00000    -0.00000
  49       0.92036   -15.25390     0.11998    -0.00000     0.00000
  50      -5.80599    -0.32485     3.19812    -0.00000    -0.00000
  51      -3.19222    -0.23826    -5.81021     0.00000    -0.00000
  52       0.39970    -6.62157     0.05188    -0.00000     0.00000
  53      -5.80592    -0.32487     3.19423    -0.00000    -0.00000
  54       0.00018    -0.00326     0.00028    -0.00000     0.00000
  55      -5.80522    -0.32430     3.19668    -0.00000    -0.00000
  56      -3.19105    -0.23803    -5.80997     0.00000    -0.00000
  57       0.39959    -6.61950     0.05227    -0.00000     0.00000
  58      -3.19092    -0.23777    -5.80919     0.00000    -0.00000
  59       0.39954    -6.61862     0.05206    -0.00000     0.00000
  int_init: cando_txs set to always be  F
                                NWChem TDDFT Module
                                -------------------


            General Information
            -------------------
           No. of orbitals :     118
            Alpha orbitals :      59
             Beta orbitals :      59
        Alpha frozen cores :       0
         Beta frozen cores :       0
     Alpha frozen virtuals :       0
      Beta frozen virtuals :       0
         Spin multiplicity :       3
    Number of AO functions :      59
        Use of symmetry is : off
      Symmetry adaption is : off
         Schwarz screening :  0.10D-07

              XC Information
              --------------
              Hartree-Fock (Exact) Exchange   1.00          
              LC-wPBE(h)Exchange Functional   1.00          
     Perdew 1991 LDA Correlation Functional   1.00 local    
    PerdewBurkeErnz. Correlation Functional   1.00 non-local
           Alpha           :  0.00
           Beta            :  1.00
           Gamma           :  0.32

             TDDFT Information
             -----------------
          Calculation type : TDDFT             
         Wavefunction type : Unrestricted
          No. of electrons :      16
           Alpha electrons :       9
            Beta electrons :       7
              No. of roots :       5
          Max subspacesize :    5000
            Max iterations :     100
               Target root :       1
           Target symmetry : none
      Symmetry restriction : off
                 Algorithm : Optimal
        Davidson threshold :  0.10D-03

            Memory Information
            ------------------
          Available GA space size is       52428793038 doubles
          Available MA space size is        4194415148 doubles
          Length of a trial vector is          450     364
          Algorithm : Incore multiple tensor contraction
          Estimated peak GA usage is          16872948 doubles
          Estimated peak MA usage is             18000 doubles

    5 smallest eigenvalue differences (eV) 
--------------------------------------------------------
  No. Spin  Occ  Vir  Irrep   E(Occ)    E(Vir)   E(Diff)
--------------------------------------------------------
    1    2    7    8 a        -0.363    -0.077     7.788
    2    2    7    9 a        -0.363    -0.077     7.788
    3    2    7   10 a        -0.363     0.070    11.787
    4    2    7   11 a        -0.363     0.088    12.292
    5    2    7   12 a        -0.363     0.089    12.311
--------------------------------------------------------

  Entering Davidson iterations
  Unrestricted

  Iter   NTrls   NConv    DeltaV     DeltaE      Time   
  ----  ------  ------  ---------  ---------  --------- 
    1      5       0     0.13E+00   0.10+100        2.3
    2     15       0     0.58E-01   0.14E-01        3.6
    3     25       0     0.13E+00   0.87E-02        3.7
    4     33       0     0.26E-01   0.14E-01        3.2
    5     41       0     0.51E-02   0.42E-03        3.2
    6     49       3     0.93E-03   0.89E-05        3.2
    7     53       4     0.15E-03   0.43E-06        2.2
    8     55       5     0.92E-04   0.43E-08        1.6
  ----  ------  ------  ---------  ---------  --------- 
  Convergence criterion met

  Ground state a        -397.975642296568 a.u.
  <S2> =   2.0051

  ----------------------------------------------------------------------------
  Root   1         a              0.000253740 a.u.                0.0069 eV 
  <S2> =   2.0071
  ----------------------------------------------------------------------------
     Transition Moments    X  0.00000   Y  0.00000   Z -0.00000
     Transition Moments   XX  2.60716  XY -2.33745  XZ -5.53879
     Transition Moments   YY -3.35715  YZ -2.78487  ZZ  0.74999
     Dipole Oscillator Strength                    0.0000000000
     Electric Quadrupole                           0.0000000000
     Magnetic Dipole                               0.0000000000
     Total Oscillator Strength                     0.0000000000

     Occ.    6 alpha a   ---  Virt.   16 alpha a   -0.07065 X
     Occ.    6 alpha a   ---  Virt.   16 alpha a   -0.07061 Y
     Occ.    6 alpha a   ---  Virt.   17 alpha a   -0.12843 X
     Occ.    6 alpha a   ---  Virt.   17 alpha a   -0.12835 Y
     Occ.    6 alpha a   ---  Virt.   25 alpha a   -0.08550 X
     Occ.    6 alpha a   ---  Virt.   25 alpha a   -0.08546 Y
     Occ.    6 alpha a   ---  Virt.   26 alpha a   -0.15486 X
     Occ.    6 alpha a   ---  Virt.   26 alpha a   -0.15479 Y
     Occ.    7 alpha a   ---  Virt.   13 alpha a   -0.06565 X
     Occ.    7 alpha a   ---  Virt.   13 alpha a   -0.06555 Y
     Occ.    7 alpha a   ---  Virt.   22 alpha a    0.06745 X
     Occ.    7 alpha a   ---  Virt.   22 alpha a    0.06739 Y
     Occ.    7 alpha a   ---  Virt.   31 alpha a   -0.06067 X
     Occ.    7 alpha a   ---  Virt.   31 alpha a   -0.06064 Y
     Occ.    7 alpha a   ---  Virt.   46 alpha a   -0.05231 X
     Occ.    7 alpha a   ---  Virt.   46 alpha a   -0.05230 Y
     Occ.    8 alpha a   ---  Virt.   30 alpha a   -0.06067 X
     Occ.    8 alpha a   ---  Virt.   30 alpha a   -0.06064 Y
     Occ.    8 alpha a   ---  Virt.   47 alpha a   -0.05231 X
     Occ.    8 alpha a   ---  Virt.   47 alpha a   -0.05230 Y
     Occ.    9 alpha a   ---  Virt.   11 alpha a   -0.06556 X
     Occ.    9 alpha a   ---  Virt.   11 alpha a   -0.06546 Y
     Occ.    9 alpha a   ---  Virt.   21 alpha a    0.06826 X
     Occ.    9 alpha a   ---  Virt.   21 alpha a    0.06819 Y
     Occ.    9 alpha a   ---  Virt.   32 alpha a   -0.08595 X
     Occ.    9 alpha a   ---  Virt.   32 alpha a   -0.08590 Y
     Occ.    9 alpha a   ---  Virt.   33 alpha a   -0.07337 X
     Occ.    9 alpha a   ---  Virt.   33 alpha a   -0.07333 Y
     Occ.    9 alpha a   ---  Virt.   49 alpha a   -0.07491 X
     Occ.    9 alpha a   ---  Virt.   49 alpha a   -0.07489 Y
     Occ.    6 beta  a   ---  Virt.   14 beta  a    0.06414 X
     Occ.    6 beta  a   ---  Virt.   14 beta  a    0.06404 Y
     Occ.    6 beta  a   ---  Virt.   15 beta  a    0.11069 X
     Occ.    6 beta  a   ---  Virt.   15 beta  a    0.11051 Y
     Occ.    6 beta  a   ---  Virt.   23 beta  a    0.05223 X
     Occ.    6 beta  a   ---  Virt.   23 beta  a    0.05218 Y
     Occ.    6 beta  a   ---  Virt.   24 beta  a    0.08989 X
     Occ.    6 beta  a   ---  Virt.   24 beta  a    0.08981 Y
     Occ.    7 beta  a   ---  Virt.    8 beta  a    3.25679 X
     Occ.    7 beta  a   ---  Virt.    8 beta  a    3.13309 Y
     Occ.    7 beta  a   ---  Virt.    9 beta  a    1.61919 X
     Occ.    7 beta  a   ---  Virt.    9 beta  a    1.55769 Y
     Occ.    7 beta  a   ---  Virt.   12 beta  a    0.34998 X
     Occ.    7 beta  a   ---  Virt.   12 beta  a    0.33771 Y
     Occ.    7 beta  a   ---  Virt.   13 beta  a    0.20865 X
     Occ.    7 beta  a   ---  Virt.   13 beta  a    0.20133 Y
     Occ.    7 beta  a   ---  Virt.   21 beta  a   -0.17188 X
     Occ.    7 beta  a   ---  Virt.   21 beta  a   -0.16632 Y
     Occ.    7 beta  a   ---  Virt.   22 beta  a   -0.09352 X
     Occ.    7 beta  a   ---  Virt.   22 beta  a   -0.09050 Y
  ----------------------------------------------------------------------------
  Root   2         a              0.000253771 a.u.                0.0069 eV 
  <S2> =   2.0071
  ----------------------------------------------------------------------------
     Transition Moments    X -0.00000   Y -0.00000   Z  0.00000
     Transition Moments   XX  5.60722  XY -3.14690  XZ  3.10510
     Transition Moments   YY -5.15329  YZ  2.13534  ZZ -0.45393
     Dipole Oscillator Strength                    0.0000000000
     Electric Quadrupole                           0.0000000000
     Magnetic Dipole                               0.0000000000
     Total Oscillator Strength                     0.0000000000

     Occ.    6 alpha a   ---  Virt.   16 alpha a   -0.12841 X
     Occ.    6 alpha a   ---  Virt.   16 alpha a   -0.12834 Y
     Occ.    6 alpha a   ---  Virt.   17 alpha a    0.07065 X
     Occ.    6 alpha a   ---  Virt.   17 alpha a    0.07061 Y
     Occ.    6 alpha a   ---  Virt.   25 alpha a   -0.15485 X
     Occ.    6 alpha a   ---  Virt.   25 alpha a   -0.15478 Y
     Occ.    6 alpha a   ---  Virt.   26 alpha a    0.08549 X
     Occ.    6 alpha a   ---  Virt.   26 alpha a    0.08545 Y
     Occ.    7 alpha a   ---  Virt.   30 alpha a   -0.06067 X
     Occ.    7 alpha a   ---  Virt.   30 alpha a   -0.06064 Y
     Occ.    7 alpha a   ---  Virt.   47 alpha a   -0.05231 X
     Occ.    7 alpha a   ---  Virt.   47 alpha a   -0.05230 Y
     Occ.    8 alpha a   ---  Virt.   13 alpha a   -0.06564 X
     Occ.    8 alpha a   ---  Virt.   13 alpha a   -0.06556 Y
     Occ.    8 alpha a   ---  Virt.   22 alpha a    0.06745 X
     Occ.    8 alpha a   ---  Virt.   22 alpha a    0.06739 Y
     Occ.    8 alpha a   ---  Virt.   31 alpha a    0.06067 X
     Occ.    8 alpha a   ---  Virt.   31 alpha a    0.06064 Y
     Occ.    8 alpha a   ---  Virt.   46 alpha a    0.05231 X
     Occ.    8 alpha a   ---  Virt.   46 alpha a    0.05230 Y
     Occ.    9 alpha a   ---  Virt.   12 alpha a    0.06556 X
     Occ.    9 alpha a   ---  Virt.   12 alpha a    0.06545 Y
     Occ.    9 alpha a   ---  Virt.   20 alpha a    0.06826 X
     Occ.    9 alpha a   ---  Virt.   20 alpha a    0.06818 Y
     Occ.    9 alpha a   ---  Virt.   32 alpha a    0.07337 X
     Occ.    9 alpha a   ---  Virt.   32 alpha a    0.07333 Y
     Occ.    9 alpha a   ---  Virt.   33 alpha a   -0.08594 X
     Occ.    9 alpha a   ---  Virt.   33 alpha a   -0.08589 Y
     Occ.    9 alpha a   ---  Virt.   48 alpha a   -0.07491 X
     Occ.    9 alpha a   ---  Virt.   48 alpha a   -0.07489 Y
     Occ.    6 beta  a   ---  Virt.   14 beta  a    0.11068 X
     Occ.    6 beta  a   ---  Virt.   14 beta  a    0.11050 Y
     Occ.    6 beta  a   ---  Virt.   15 beta  a   -0.06414 X
     Occ.    6 beta  a   ---  Virt.   15 beta  a   -0.06404 Y
     Occ.    6 beta  a   ---  Virt.   23 beta  a    0.08988 X
     Occ.    6 beta  a   ---  Virt.   23 beta  a    0.08980 Y
     Occ.    6 beta  a   ---  Virt.   24 beta  a   -0.05223 X
     Occ.    6 beta  a   ---  Virt.   24 beta  a   -0.05218 Y
     Occ.    7 beta  a   ---  Virt.    8 beta  a    1.61910 X
     Occ.    7 beta  a   ---  Virt.    8 beta  a    1.55759 Y
     Occ.    7 beta  a   ---  Virt.    9 beta  a   -3.25660 X
     Occ.    7 beta  a   ---  Virt.    9 beta  a   -3.13290 Y
     Occ.    7 beta  a   ---  Virt.   12 beta  a   -0.20864 X
     Occ.    7 beta  a   ---  Virt.   12 beta  a   -0.20132 Y
     Occ.    7 beta  a   ---  Virt.   13 beta  a    0.34996 X
     Occ.    7 beta  a   ---  Virt.   13 beta  a    0.33768 Y
     Occ.    7 beta  a   ---  Virt.   21 beta  a    0.09352 X
     Occ.    7 beta  a   ---  Virt.   21 beta  a    0.09049 Y
     Occ.    7 beta  a   ---  Virt.   22 beta  a   -0.17187 X
     Occ.    7 beta  a   ---  Virt.   22 beta  a   -0.16631 Y
  ----------------------------------------------------------------------------
  Root   3         a              0.253228566 a.u.                6.8907 eV 
  <S2> =   3.4985
  ----------------------------------------------------------------------------
     Transition Moments    X  0.41402   Y  0.22756   Z -0.02849
     Transition Moments   XX  0.00000  XY  0.00000  XZ  0.00000
     Transition Moments   YY  0.00000  YZ  0.00000  ZZ  0.00000
     Dipole Oscillator Strength                    0.0378174444
     Electric Quadrupole                           0.0000000000
     Magnetic Dipole                               0.0000000000
     Total Oscillator Strength                     0.0378174444

     Occ.    9 alpha a   ---  Virt.   10 alpha a    0.24854 X
     Occ.    9 alpha a   ---  Virt.   19 alpha a   -0.06701 X
     Occ.    7 beta  a   ---  Virt.   10 beta  a   -0.95027 X
     Occ.    7 beta  a   ---  Virt.   19 beta  a    0.16476 X
  ----------------------------------------------------------------------------
  Root   4         a              0.273511484 a.u.                7.4426 eV 
  <S2> =   2.5087
  ----------------------------------------------------------------------------
     Transition Moments    X  0.65926   Y  0.36235   Z -0.04537
     Transition Moments   XX  0.00000  XY  0.00000  XZ  0.00000
     Transition Moments   YY  0.00000  YZ  0.00000  ZZ  0.00000
     Dipole Oscillator Strength                    0.1035656729
     Electric Quadrupole                           0.0000000000
     Magnetic Dipole                               0.0000000000
     Total Oscillator Strength                     0.1035656729

     Occ.    9 alpha a   ---  Virt.   10 alpha a   -0.95167 X
     Occ.    9 alpha a   ---  Virt.   19 alpha a    0.16068 X
     Occ.    7 beta  a   ---  Virt.   10 beta  a   -0.25834 X
  ----------------------------------------------------------------------------
  Root   5         a              0.294629856 a.u.                8.0173 eV 
  <S2> =   3.5421
  ----------------------------------------------------------------------------
     Transition Moments    X  0.00000   Y  0.00000   Z -0.00000
     Transition Moments   XX  1.36663  XY  0.59604  XZ -0.07463
     Transition Moments   YY  0.60982  YZ -0.04102  ZZ  0.28735
     Dipole Oscillator Strength                    0.0000000000
     Electric Quadrupole                           0.0000000912
     Magnetic Dipole                               0.0000000000
     Total Oscillator Strength                     0.0000000912

     Occ.    7 alpha a   ---  Virt.   12 alpha a   -0.05790 X
     Occ.    8 alpha a   ---  Virt.   11 alpha a   -0.05790 X
     Occ.    9 alpha a   ---  Virt.   13 alpha a   -0.27869 X
     Occ.    9 alpha a   ---  Virt.   22 alpha a    0.08167 X
     Occ.    7 beta  a   ---  Virt.   11 beta  a    0.93886 X
     Occ.    7 beta  a   ---  Virt.   20 beta  a   -0.14673 X

              Target root =      1
          Target symmetry = none
      Ground state energy =   -397.975642296568
        Excitation energy =      0.000253739879
     Excited state energy =   -397.975388556689

  stored tddft:energy   -397.97538855668938     

 Task  times  cpu:       21.8s     wall:       26.2s


                                NWChem Input Module
                                -------------------


 Summary of allocated global arrays
-----------------------------------
  No active global arrays


MA_summarize_allocated_blocks: starting scan ...
heap block 'gridpts', handle 65, address 0x12523e28:
	type of elements:		double precision
	number of elements:		1048463508
	address of client space:	0x12523e80
	index for client space:		10265383
	total number of bytes:		8387708160
MA_summarize_allocated_blocks: scan completed: 1 heap block, 0 stack blocks
MA usage statistics:

	allocation statistics:
					      heap	     stack
					      ----	     -----
	current number of blocks	         1	         0
	maximum number of blocks	        18	        54
	current total bytes		8387708160	         0
	maximum total bytes		8388304672	  22513464
	maximum total K-bytes		   8388305	     22514
	maximum total M-bytes		      8389	        23


                                     CITATION
                                     --------
                Please cite the following reference when publishing
                           results obtained with NWChem:

          E. Apra, E. J. Bylaska, W. A. de Jong, N. Govind, K. Kowalski,
       T. P. Straatsma, M. Valiev, H. J. J. van Dam, Y. Alexeev, J. Anchell,
       V. Anisimov, F. W. Aquino, R. Atta-Fynn, J. Autschbach, N. P. Bauman,
     J. C. Becca, D. E. Bernholdt, K. Bhaskaran-Nair, S. Bogatko, P. Borowski,
         J. Boschen, J. Brabec, A. Bruner, E. Cauet, Y. Chen, G. N. Chuev,
      C. J. Cramer, J. Daily, M. J. O. Deegan, T. H. Dunning Jr., M. Dupuis,
   K. G. Dyall, G. I. Fann, S. A. Fischer, A. Fonari, H. Fruchtl, L. Gagliardi,
      J. Garza, N. Gawande, S. Ghosh, K. Glaesemann, A. W. Gotz, J. Hammond,
       V. Helms, E. D. Hermes, K. Hirao, S. Hirata, M. Jacquelin, L. Jensen,
   B. G. Johnson, H. Jonsson, R. A. Kendall, M. Klemm, R. Kobayashi, V. Konkov,
      S. Krishnamoorthy, M. Krishnan, Z. Lin, R. D. Lins, R. J. Littlefield,
      A. J. Logsdail, K. Lopata, W. Ma, A. V. Marenich, J. Martin del Campo,
   D. Mejia-Rodriguez, J. E. Moore, J. M. Mullin, T. Nakajima, D. R. Nascimento,
    J. A. Nichols, P. J. Nichols, J. Nieplocha, A. Otero-de-la-Roza, B. Palmer,
    A. Panyala, T. Pirojsirikul, B. Peng, R. Peverati, J. Pittner, L. Pollack,
   R. M. Richard, P. Sadayappan, G. C. Schatz, W. A. Shelton, D. W. Silverstein,
   D. M. A. Smith, T. A. Soares, D. Song, M. Swart, H. L. Taylor, G. S. Thomas,
            V. Tipparaju, D. G. Truhlar, K. Tsemekhman, T. Van Voorhis,
      A. Vazquez-Mayagoitia, P. Verma, O. Villa, A. Vishnu, K. D. Vogiatzis,
        D. Wang, J. H. Weare, M. J. Williamson, T. L. Windus, K. Wolinski,
        A. T. Wong, Q. Wu, C. Yang, Q. Yu, M. Zacharias, Z. Zhang, Y. Zhao,
                                and R. J. Harrison
                        "NWChem: Past, present, and future
                         J. Chem. Phys. 152, 184102 (2020)
                               doi:10.1063/5.0004997

                                      AUTHORS
                                      -------
  E. Apra, E. J. Bylaska, N. Govind, K. Kowalski, M. Valiev, D. Mejia-Rodriguez,
       A. Kunitsa, N. P. Bauman, A. Panyala, W. A. de Jong, T. P. Straatsma,
   H. J. J. van Dam, D. Wang, T. L. Windus, J. Hammond, J. Autschbach, A. Woods,
    K. Bhaskaran-Nair, J. Brabec, K. Lopata, S. A. Fischer, S. Krishnamoorthy,
     M. Jacquelin, W. Ma, M. Klemm, O. Villa, Y. Chen, V. Anisimov, F. Aquino,
     S. Hirata, M. T. Hackler, E. Hermes, L. Jensen, J. E. Moore, J. C. Becca,
      V. Konjkov, T. Risthaus, M. Malagoli, A. Marenich, A. Otero-de-la-Roza,
        J. Mullin, P. Nichols, R. Peverati, J. Pittner, Y. Zhao, P.-D. Fan,
        A. Fonari, M. J. Williamson, R. J. Harrison, J. R. Rehr, M. Dupuis,
     D. Silverstein, D. M. A. Smith, J. Nieplocha, V. Tipparaju, M. Krishnan,
     B. E. Van Kuiken, A. Vazquez-Mayagoitia, M. Swart, Q. Wu, T. Van Voorhis,
     A. A. Auer, M. Nooijen, L. D. Crosby, E. Brown, G. Cisneros, G. I. Fann,
   H. Fruchtl, J. Garza, K. Hirao, R. A. Kendall, J. A. Nichols, K. Tsemekhman,
    K. Wolinski, J. Anchell, D. E. Bernholdt, P. Borowski, T. Clark, D. Clerc,
   H. Dachsel, M. J. O. Deegan, K. Dyall, D. Elwood, E. Glendening, M. Gutowski,
   A. C. Hess, J. Jaffe, B. G. Johnson, J. Ju, R. Kobayashi, R. Kutteh, Z. Lin,
   R. Littlefield, X. Long, B. Meng, T. Nakajima, S. Niu, L. Pollack, M. Rosing,
   K. Glaesemann, G. Sandrone, M. Stave, H. Taylor, G. Thomas, J. H. van Lenthe,
                               A. T. Wong, Z. Zhang.

 Total times  cpu:       21.8s     wall:       26.5s
