 argument  1 = /home/aditisingh4812/nw_chem/nwchem-run/nwchem-run/tddft/open/open_atom/geom-MOL/se.nw
                                         
                                         


             Northwest Computational Chemistry Package (NWChem) 7.2.3
             --------------------------------------------------------


                    Environmental Molecular Sciences Laboratory
                       Pacific Northwest National Laboratory
                                Richland, WA 99352

                              Copyright (c) 1994-2022
                       Pacific Northwest National Laboratory
                            Battelle Memorial Institute

             NWChem is an open-source computational chemistry package
                        distributed under the terms of the
                      Educational Community License (ECL) 2.0
             A copy of the license is included with this distribution
                              in the LICENSE.TXT file

                                  ACKNOWLEDGMENT
                                  --------------

            This software and its documentation were developed at the
            EMSL at Pacific Northwest National Laboratory, a multiprogram
            national laboratory, operated for the U.S. Department of Energy
            by Battelle under Contract Number DE-AC05-76RL01830. Support
            for this work was provided by the Department of Energy Office
            of Biological and Environmental Research, Office of Basic
            Energy Sciences, and the Office of Advanced Scientific Computing.


           Job information
           ---------------

    hostname        = p17
    program         = /home/aditisingh4812/nw_chem/nwchem-7.2.3-release.revision-d690e065-srconly.2024-08-27/nwchem-7.2.3/bin/LINUX64/nwchem
    date            = Thu May  8 11:55:20 2025

    compiled        = Mon_Apr_07_18:51:54_2025
    source          = /home/aditisingh4812/nw_chem/nwchem-7.2.3-release.revision-d690e065-srconly.2024-08-27/nwchem-7.2.3
    nwchem branch   = 7.2.3
    nwchem revision = d690e065
    ga revision     = 5.8.0
    use scalapack   = F
    input           = /home/aditisingh4812/nw_chem/nwchem-run/nwchem-run/tddft/open/open_atom/geom-MOL/se.nw
    prefix          = se.
    data base       = ./se.db
    status          = startup
    nproc           =        8
    time left       =     -1s



           Memory information
           ------------------

    heap     = 2621439998 doubles =  20000.0 Mbytes
    stack    = 2621439995 doubles =  20000.0 Mbytes
    global   = 6553600000 doubles =  50000.0 Mbytes (distinct from heap & stack)
    total    = ********** doubles =  90000.0 Mbytes
    verify   = yes
    hardfail = no 


           Directory information
           ---------------------

  0 permanent = .
  0 scratch   = .




                                NWChem Input Module
                                -------------------



 Scaling coordinates for geometry "geometry" by  1.889725989
 (inverse scale =  0.529177249)



                             Geometry "geometry" -> ""
                             -------------------------

 Output coordinates in angstroms (scale by  1.889725989 to convert to a.u.)

  No.       Tag          Charge          X              Y              Z
 ---- ---------------- ---------- -------------- -------------- --------------
    1 Se                  34.0000     0.00000000     0.00000000     0.00000000

      Atomic Mass 
      ----------- 

      Se                78.918300


 Effective nuclear repulsion energy (a.u.)       0.0000000000

            Nuclear Dipole moment (a.u.) 
            ----------------------------
        X                 Y               Z
 ---------------- ---------------- ----------------
     0.0000000000     0.0000000000     0.0000000000


            XYZ format geometry
            -------------------
     1
 geometry
 Se                    0.00000000     0.00000000     0.00000000



 Summary of "ao basis" -> "" (cartesian)
 ------------------------------------------------------------------------------
       Tag                 Description            Shells   Functions and Types
 ---------------- ------------------------------  ------  ---------------------
 *                        aug-cc-pVTZ                 on all atoms 


  pbe96 is a nonlocal functional; adding pw91lda local functional. 

                                 NWChem DFT Module
                                 -----------------


                      Basis "ao basis" -> "ao basis" (cartesian)
                      -----
  Se (Selenium)
  -------------
            Exponent  Coefficients 
       -------------- ---------------------------------------------------------
  1 S  9.56360000E+06  0.000006
  1 S  1.43210000E+06  0.000049
  1 S  3.25910000E+05  0.000257
  1 S  9.23120000E+04  0.001086
  1 S  3.01160000E+04  0.003940
  1 S  1.08720000E+04  0.012704
  1 S  4.24010000E+03  0.036716
  1 S  1.75840000E+03  0.093867
  1 S  7.66590000E+02  0.201768
  1 S  3.48430000E+02  0.328054
  1 S  1.64030000E+02  0.323833
  1 S  7.91420000E+01  0.135234
  1 S  3.55240000E+01  0.011708
  1 S  1.73050000E+01 -0.000344
  1 S  8.37840000E+00  0.000167
  1 S  3.74050000E+00 -0.000119
  1 S  1.68900000E+00  0.000020
  1 S  2.55200000E-01  0.000008

  2 S  9.56360000E+06 -0.000002
  2 S  1.43210000E+06 -0.000015
  2 S  3.25910000E+05 -0.000081
  2 S  9.23120000E+04 -0.000340
  2 S  3.01160000E+04 -0.001240
  2 S  1.08720000E+04 -0.004018
  2 S  4.24010000E+03 -0.011867
  2 S  1.75840000E+03 -0.031534
  2 S  7.66590000E+02 -0.074644
  2 S  3.48430000E+02 -0.145218
  2 S  1.64030000E+02 -0.203844
  2 S  7.91420000E+01 -0.078871
  2 S  3.55240000E+01  0.384583
  2 S  1.73050000E+01  0.586527
  2 S  8.37840000E+00  0.197359
  2 S  3.74050000E+00  0.010010
  2 S  1.68900000E+00  0.001316
  2 S  2.55200000E-01  0.000111

  3 S  9.56360000E+06  0.000001
  3 S  1.43210000E+06  0.000006
  3 S  3.25910000E+05  0.000032
  3 S  9.23120000E+04  0.000134
  3 S  3.01160000E+04  0.000488
  3 S  1.08720000E+04  0.001582
  3 S  4.24010000E+03  0.004692
  3 S  1.75840000E+03  0.012510
  3 S  7.66590000E+02  0.030038
  3 S  3.48430000E+02  0.059727
  3 S  1.64030000E+02  0.088470
  3 S  7.91420000E+01  0.036392
  3 S  3.55240000E+01 -0.223533
  3 S  1.73050000E+01 -0.512246
  3 S  8.37840000E+00 -0.108422
  3 S  3.74050000E+00  0.693637
  3 S  1.68900000E+00  0.555871
  3 S  2.55200000E-01 -0.011383

  4 S  9.56360000E+06 -0.000000
  4 S  1.43210000E+06 -0.000002
  4 S  3.25910000E+05 -0.000009
  4 S  9.23120000E+04 -0.000039
  4 S  3.01160000E+04 -0.000143
  4 S  1.08720000E+04 -0.000463
  4 S  4.24010000E+03 -0.001372
  4 S  1.75840000E+03 -0.003663
  4 S  7.66590000E+02 -0.008806
  4 S  3.48430000E+02 -0.017587
  4 S  1.64030000E+02 -0.026207
  4 S  7.91420000E+01 -0.010996
  4 S  3.55240000E+01  0.069570
  4 S  1.73050000E+01  0.168395
  4 S  8.37840000E+00  0.034616
  4 S  3.74050000E+00 -0.297870
  4 S  1.68900000E+00 -0.432257
  4 S  2.55200000E-01  0.675722

  5 S  5.09270000E-01  1.000000

  6 S  1.06510000E-01  1.000000

  7 S  3.92010000E-02  1.000000

  8 P  8.00430000E+03  0.000451
  8 P  1.89690000E+03  0.003905
  8 P  6.14710000E+02  0.021090
  8 P  2.33500000E+02  0.081292
  8 P  9.78560000E+01  0.221784
  8 P  4.35140000E+01  0.390727
  8 P  2.00630000E+01  0.355971
  8 P  9.11270000E+00  0.107327
  8 P  4.10630000E+00  0.003699
  8 P  1.79490000E+00  0.001803
  8 P  2.46150000E-01  0.000221

  9 P  8.00430000E+03 -0.000178
  9 P  1.89690000E+03 -0.001555
  9 P  6.14710000E+02 -0.008473
  9 P  2.33500000E+02 -0.033625
  9 P  9.78560000E+01 -0.095827
  9 P  4.35140000E+01 -0.181391
  9 P  2.00630000E+01 -0.150315
  9 P  9.11270000E+00  0.194826
  9 P  4.10630000E+00  0.541555
  9 P  1.79490000E+00  0.383730
  9 P  2.46150000E-01 -0.005013

 10 P  8.00430000E+03  0.000043
 10 P  1.89690000E+03  0.000377
 10 P  6.14710000E+02  0.002047
 10 P  2.33500000E+02  0.008190
 10 P  9.78560000E+01  0.023336
 10 P  4.35140000E+01  0.044981
 10 P  2.00630000E+01  0.035748
 10 P  9.11270000E+00 -0.058687
 10 P  4.10630000E+00 -0.170957
 10 P  1.79490000E+00 -0.129358
 10 P  2.46150000E-01  0.577807

 11 P  6.24320000E-01  1.000000

 12 P  8.89170000E-02  1.000000

 13 P  3.02510000E-02  1.000000

 14 D  3.61850000E+02  0.001566
 14 D  1.08550000E+02  0.013326
 14 D  4.14330000E+01  0.060153
 14 D  1.75790000E+01  0.174029
 14 D  7.86270000E+00  0.319569
 14 D  3.51800000E+00  0.381203
 14 D  1.53480000E+00  0.274609

 15 D  6.08130000E-01  1.000000

 16 D  2.22000000E-01  1.000000

 17 D  8.37000000E-02  1.000000

 18 F  4.62000000E-01  1.000000

 19 F  1.88000000E-01  1.000000



 Summary of "ao basis" -> "ao basis" (cartesian)
 ------------------------------------------------------------------------------
       Tag                 Description            Shells   Functions and Types
 ---------------- ------------------------------  ------  ---------------------
 Se                       aug-cc-pVTZ               19       69   7s6p4d2f




 Summary of "ao basis" -> "ao basis" (cartesian)
 ------------------------------------------------------------------------------
       Tag                 Description            Shells   Functions and Types
 ---------------- ------------------------------  ------  ---------------------
 Se                       aug-cc-pVTZ               19       69   7s6p4d2f




                         Geometry "geometry" -> "geometry"
                         ---------------------------------

 Output coordinates in angstroms (scale by  1.889725989 to convert to a.u.)

  No.       Tag          Charge          X              Y              Z
 ---- ---------------- ---------- -------------- -------------- --------------
    1 Se                  34.0000     0.00000000     0.00000000     0.00000000

      Atomic Mass 
      ----------- 

      Se                78.918300


 Effective nuclear repulsion energy (a.u.)       0.0000000000

            Nuclear Dipole moment (a.u.) 
            ----------------------------
        X                 Y               Z
 ---------------- ---------------- ----------------
     0.0000000000     0.0000000000     0.0000000000


                      Basis "ao basis" -> "ao basis" (cartesian)
                      -----
  Se (Selenium)
  -------------
            Exponent  Coefficients 
       -------------- ---------------------------------------------------------
  1 S  9.56360000E+06  0.772176
  1 S  1.43210000E+06  1.442775
  1 S  3.25910000E+05  2.502313
  1 S  9.23120000E+04  4.099428
  1 S  3.01160000E+04  6.419379
  1 S  1.08720000E+04  9.640195
  1 S  4.24010000E+03 13.749679
  1 S  1.75840000E+03 18.166111
  1 S  7.66590000E+02 20.949992
  1 S  3.48430000E+02 18.855665
  1 S  1.64030000E+02 10.578497
  1 S  7.91420000E+01  2.557408
  1 S  3.55240000E+01  0.121413
  1 S  1.73050000E+01 -0.002078
  1 S  8.37840000E+00  0.000584
  1 S  3.74050000E+00 -0.000228
  1 S  1.68900000E+00  0.000022
  1 S  2.55200000E-01  0.000002

  2 S  9.56360000E+06 -0.245124
  2 S  1.43210000E+06 -0.451400
  2 S  3.25910000E+05 -0.783517
  2 S  9.23120000E+04 -1.283253
  2 S  3.01160000E+04 -2.019782
  2 S  1.08720000E+04 -3.048593
  2 S  4.24010000E+03 -4.443961
  2 S  1.75840000E+03 -6.102492
  2 S  7.66590000E+02 -7.750087
  2 S  3.48430000E+02 -8.346352
  2 S  1.64030000E+02 -6.658563
  2 S  7.91420000E+01 -1.491465
  2 S  3.55240000E+01  3.988144
  2 S  1.73050000E+01  3.546554
  2 S  8.37840000E+00  0.692656
  2 S  3.74050000E+00  0.019188
  2 S  1.68900000E+00  0.001390
  2 S  2.55200000E-01  0.000028

  3 S  9.56360000E+06  0.100860
  3 S  1.43210000E+06  0.182093
  3 S  3.25910000E+05  0.316990
  3 S  9.23120000E+04  0.519084
  3 S  3.01160000E+04  0.818365
  3 S  1.08720000E+04  1.234890
  3 S  4.24010000E+03  1.807354
  3 S  1.75840000E+03  2.490296
  3 S  7.66590000E+02  3.208169
  3 S  3.48430000E+02  3.531185
  3 S  1.64030000E+02  2.972685
  3 S  7.91420000E+01  0.707903
  3 S  3.55240000E+01 -2.384489
  3 S  1.73050000E+01 -3.186177
  3 S  8.37840000E+00 -0.391428
  3 S  3.74050000E+00  1.367704
  3 S  1.68900000E+00  0.603752
  3 S  2.55200000E-01 -0.002996

  4 S  9.56360000E+06 -0.038438
  4 S  1.43210000E+06 -0.083276
  4 S  3.25910000E+05 -0.141767
  4 S  9.23120000E+04 -0.231413
  4 S  3.01160000E+04 -0.364833
  4 S  1.08720000E+04 -0.550554
  4 S  4.24010000E+03 -0.805782
  4 S  1.75840000E+03 -1.111526
  4 S  7.66590000E+02 -1.433752
  4 S  3.48430000E+02 -1.585036
  4 S  1.64030000E+02 -1.342408
  4 S  7.91420000E+01 -0.326080
  4 S  3.55240000E+01  1.131305
  4 S  1.73050000E+01  1.596707
  4 S  8.37840000E+00  0.190509
  4 S  3.74050000E+00 -0.895349
  4 S  1.68900000E+00 -0.715702
  4 S  2.55200000E-01  0.271142

  5 S  5.09270000E-01  0.429656

  6 S  1.06510000E-01  0.132878

  7 S  3.92010000E-02  0.062789

  8 P  8.00430000E+03 48.615810
  8 P  1.89690000E+03 69.677730
  8 P  6.14710000E+02 92.012116
  8 P  2.33500000E+02105.763289
  8 P  9.78560000E+01 97.295614
  8 P  4.35140000E+01 62.242670
  8 P  2.00630000E+01 21.544602
  8 P  9.11270000E+00  2.422128
  8 P  4.10630000E+00  0.030815
  8 P  1.79490000E+00  0.005340
  8 P  2.46150000E-01  0.000055

  9 P  8.00430000E+03-19.699618
  9 P  1.89690000E+03-28.415147
  9 P  6.14710000E+02-37.845299
  9 P  2.33500000E+02-44.788519
  9 P  9.78560000E+01-43.040085
  9 P  4.35140000E+01-29.583771
  9 P  2.00630000E+01 -9.314295
  9 P  9.11270000E+00  4.501515
  9 P  4.10630000E+00  4.619644
  9 P  1.79490000E+00  1.163398
  9 P  2.46150000E-01 -0.001268

 10 P  8.00430000E+03  7.845211
 10 P  1.89690000E+03 11.373101
 10 P  6.14710000E+02 15.094947
 10 P  2.33500000E+02 18.014375
 10 P  9.78560000E+01 17.307538
 10 P  4.35140000E+01 12.114354
 10 P  2.00630000E+01  3.657821
 10 P  9.11270000E+00 -2.239132
 10 P  4.10630000E+00 -2.408147
 10 P  1.79490000E+00 -0.647629
 10 P  2.46150000E-01  0.241415

 11 P  6.24320000E-01  0.791041

 12 P  8.89170000E-02  0.069210

 13 P  3.02510000E-02  0.017983

 14 D  3.61850000E+02 79.773276
 14 D  1.08550000E+02 82.572964
 14 D  4.14330000E+01 69.086094
 14 D  1.75790000E+01 44.580149
 14 D  7.86270000E+00 20.026012
 14 D  3.51800000E+00  5.847271
 14 D  1.53480000E+00  0.986471

 15 D  6.08130000E-01  0.689292

 16 D  2.22000000E-01  0.118175

 17 D  8.37000000E-02  0.021438

 18 F  4.62000000E-01  0.259059

 19 F  1.88000000E-01  0.034262



    Basis function labels
    ---------------------
       No.  Atm El Type
       ---  --- -- ----
        1    1 Se s          
        2    1 Se s          
        3    1 Se s          
        4    1 Se s          
        5    1 Se s          
        6    1 Se s          
        7    1 Se s          
        8    1 Se px         
        9    1 Se py         
       10    1 Se pz         
       11    1 Se px         
       12    1 Se py         
       13    1 Se pz         
       14    1 Se px         
       15    1 Se py         
       16    1 Se pz         
       17    1 Se px         
       18    1 Se py         
       19    1 Se pz         
       20    1 Se px         
       21    1 Se py         
       22    1 Se pz         
       23    1 Se px         
       24    1 Se py         
       25    1 Se pz         
       26    1 Se dxx        
       27    1 Se dxy        
       28    1 Se dxz        
       29    1 Se dyy        
       30    1 Se dyz        
       31    1 Se dzz        
       32    1 Se dxx        
       33    1 Se dxy        
       34    1 Se dxz        
       35    1 Se dyy        
       36    1 Se dyz        
       37    1 Se dzz        
       38    1 Se dxx        
       39    1 Se dxy        
       40    1 Se dxz        
       41    1 Se dyy        
       42    1 Se dyz        
       43    1 Se dzz        
       44    1 Se dxx        
       45    1 Se dxy        
       46    1 Se dxz        
       47    1 Se dyy        
       48    1 Se dyz        
       49    1 Se dzz        
       50    1 Se fxxx       
       51    1 Se fxxy       
       52    1 Se fxxz       
       53    1 Se fxyy       
       54    1 Se fxyz       
       55    1 Se fxzz       
       56    1 Se fyyy       
       57    1 Se fyyz       
       58    1 Se fyzz       
       59    1 Se fzzz       
       60    1 Se fxxx       
       61    1 Se fxxy       
       62    1 Se fxxz       
       63    1 Se fxyy       
       64    1 Se fxyz       
       65    1 Se fxzz       
       66    1 Se fyyy       
       67    1 Se fyyz       
       68    1 Se fyzz       
       69    1 Se fzzz       
  int_init: cando_txs set to always be  F

 Schwarz integral screening summary 
 ---------------------------------- 

        No. of atom pairs =       1
       No. of shell pairs =     190

 Atomic screening 

   value      no.     value      no.     value      no.     value      no.   
  -------- ------    -------- ------    -------- ------    -------- ------   
  0.00D+00      0    1.00D-13      0    1.00D-12      0    1.00D-11      0
  1.00D-10      0    1.00D-09      0    1.00D-08      0    1.00D-07      0
  1.00D-06      0    1.00D-05      0    1.00D-04      0    1.00D-03      0
  1.00D-02      0    1.00D-01      0    1.00D+00      0    1.00D+01      1


 Shell screening 

   value      no.     value      no.     value      no.     value      no.   
  -------- ------    -------- ------    -------- ------    -------- ------   
  0.00D+00      0    1.00D-13      0    1.00D-12      0    1.00D-11      0
  1.00D-10      0    1.00D-09      0    1.00D-08      0    1.00D-07      0
  1.00D-06      1    1.00D-05      2    1.00D-04      3    1.00D-03      7
  1.00D-02     18    1.00D-01     69    1.00D+00     88    1.00D+01      2


  Caching 1-el integrals 
  atom                     1  - neighbor  & S                     1   10.000000000000000       exp AB    3.0251000000000021E-002   3.0251000000000021E-002
 zmins =     0.030251000    0.030251000 lprod =   2 range =        19.04 acc   0.10D-06
 sh     0.000000000
  Center:                     1  Radial Pts. & Wghts. 
    1        0.000001754           1.6188610E-17
    2        0.000014032           4.1443048E-15
    3        0.000047358           1.0621544E-13
    4        0.000112257           1.0609844E-12
    5        0.000219255           6.3242351E-12
    6        0.000378878           2.7194819E-11
    7        0.000601658           9.3346889E-11
    8        0.000898129           2.7169885E-10
    9        0.001278832           6.9722866E-10
   10        0.001754312           1.6200154E-09
   11        0.002335127           3.4734674E-09
   12        0.003031845           6.9693903E-09
   13        0.003855047           1.3226260E-08
   14        0.004815330           2.3937795E-08
   15        0.005923313           4.1589687E-08
   16        0.007189634           6.9733123E-08
   17        0.008624957           1.1332459E-07
   18        0.010239978           1.7914227E-07
   19        0.012045421           2.7629036E-07
   20        0.014052052           4.1680343E-07
   21        0.016270676           6.1636435E-07
   22        0.018712142           8.9514991E-07
   23        0.021387353           1.2788201E-06
   24        0.024307266           1.7996676E-06
   25        0.027482899           2.4979468E-06
   26        0.030925337           3.4234007E-06
   27        0.034645738           4.6370089E-06
   28        0.038655338           6.2129798E-06
   29        0.042965460           8.2410122E-06
   30        0.047587518           1.0828854E-05
   31        0.052533025           1.4105189E-05
   32        0.057813603           1.8222886E-05
   33        0.063440988           2.3362642E-05
   34        0.069427039           2.9737061E-05
   35        0.075783746           3.7595220E-05
   36        0.082523243           4.7227750E-05
   37        0.089657810           5.8972503E-05
   38        0.097199891           7.3220853E-05
   39        0.105162098           9.0424690E-05
   40        0.113557228           1.1110418E-04
   41        0.122398268           1.3585637E-04
   42        0.131698411           1.6536473E-04
   43        0.141471068           2.0040963E-04
   44        0.151729880           2.4188010E-04
   45        0.162488731           2.9078660E-04
   46        0.173761768           3.4827532E-04
   47        0.185563407           4.1564388E-04
   48        0.197908357           4.9435866E-04
   49        0.210811634           5.8607396E-04
   50        0.224288575           6.9265317E-04
   51        0.238354864           8.1619202E-04
   52        0.253026544           9.5904444E-04
   53        0.268320043           1.1238509E-03
   54        0.284252192           1.3135697E-03
   55        0.300840250           1.5315120E-03
   56        0.318101928           1.7813797E-03
   57        0.336055411           2.0673077E-03
   58        0.354719392           2.3939112E-03
   59        0.374113094           2.7663366E-03
   60        0.394256302           3.1903195E-03
   61        0.415169397           3.6722475E-03
   62        0.436873387           4.2192303E-03
   63        0.459389946           4.8391778E-03
   64        0.482741448           5.5408861E-03
   65        0.506951012           6.3341330E-03
   66        0.532042544           7.2297845E-03
   67        0.558040782           8.2399126E-03
   68        0.584971345           9.3779271E-03
   69        0.612860786           1.0658721E-02
   70        0.641736652           1.2098835E-02
   71        0.671627535           1.3716638E-02
   72        0.702563145           1.5532530E-02
   73        0.734574374           1.7569169E-02
   74        0.767693371           1.9851728E-02
   75        0.801953622           2.2408173E-02
   76        0.837390034           2.5269590E-02
   77        0.874039028           2.8470538E-02
   78        0.911938636           3.2049451E-02
   79        0.951128610           3.6049098E-02
   80        0.991650537           4.0517087E-02
   81        1.033547962           4.5506450E-02
   82        1.076866523           5.1076290E-02
   83        1.121654103           5.7292525E-02
   84        1.167960982           6.4228725E-02
   85        1.215840013           7.1967071E-02
   86        1.265346815           8.0599435E-02
   87        1.316539974           9.0228623E-02
   88        1.369481268           1.0096979E-01
   89        1.424235919           1.1295206E-01
   90        1.480872858           1.2632039E-01
   91        1.539465025           1.4123771E-01
   92        1.600089697           1.5788736E-01
   93        1.662828845           1.7647601E-01
   94        1.727769538           1.9723686E-01
   95        1.795004379           2.2043355E-01
   96        1.864632002           2.4636457E-01
   97        1.936757610           2.7536848E-01
   98        2.011493585           3.0783000E-01
   99        2.088960169           3.4418714E-01
  100        2.169286224           3.8493968E-01
  101        2.252610085           4.3065905E-01
  102        2.339080523           4.8200020E-01
  103        2.428857833           5.3971564E-01
  104        2.522115069           6.0467227E-01
  105        2.619039443           6.7787150E-01
  106        2.719833922           7.6047363E-01
  107        2.824719064           8.5382726E-01
  108        2.933935117           9.5950508E-01
  109        3.047744450           1.0793477E+00
  110        3.166434363           1.2155176E+00
  111        3.290320365           1.3705656E+00
  112        3.419750000           1.5475137E+00
  113        3.555107349           1.7499591E+00
  114        3.696818353           1.9822048E+00
  115        3.845357137           2.2494262E+00
  116        4.001253574           2.5578839E+00
  117        4.165102397           2.9151990E+00
  118        4.337574252           3.3307117E+00
  119        4.519429203           3.8159540E+00
  120        4.711533391           4.3852789E+00
  121        4.914879746           5.0567078E+00
  122        5.130614033           5.8530876E+00
  123        5.360067931           6.8036921E+00
  124        5.604801588           7.9464746E+00
  125        5.866659083           9.3312898E+00
  126        6.147841819           1.1024596E+01
  127        6.451007272           1.3116461E+01
  128        6.779404398           1.5731270E+01
  129        7.137063352           1.9044543E+01
  130        7.529067952           2.3310204E+01
  131        7.961958372           2.8906507E+01
  132        8.444346733           3.6416779E+01
  133        8.987896793           4.6779071E+01
  134        9.608961259           6.1581736E+01
  135       10.331489820           8.3695532E+01
  136       11.192612542           1.1877108E+02
  137       12.254533082           1.7930887E+02
  138       13.633862005           2.9812351E+02
  139       15.592394456           5.8918060E+02
  140       18.965497973           1.7559686E+03
     irreducible set of Lebedev Angular points ;
  0.009523809523810  1.000000000000000  0.000000000000000  0.000000000000000
  0.032142857142857  0.577350269189626  0.577350269189626  0.577350269189626
  0.028571428571429  0.459700843380983  0.000000000000000  0.888073833977115
   total no. of   reducible points:  38; test:  1.00000000
  0.012698412698413  1.000000000000000  0.000000000000000  0.000000000000000
  0.022574955908289  0.707106781186547  0.707106781186547  0.000000000000000
  0.021093750000000  0.577350269189626  0.577350269189626  0.577350269189626
  0.020173335537919  0.301511344577764  0.301511344577764  0.904534033733291
   total no. of   reducible points:  50; test:  1.00000000
  0.000513067179734  1.000000000000000  0.000000000000000  0.000000000000000
  0.016604069565742  0.707106781186547  0.707106781186547  0.000000000000000
 -0.029586038961039  0.577350269189626  0.577350269189626  0.577350269189626
  0.026576207082159  0.480384461415261  0.480384461415261  0.733799385705343
  0.016522170993716  0.320772648980776  0.000000000000000  0.947156221362588
   total no. of   reducible points:  74; test:  1.00000000
  0.011544011544012  1.000000000000000  0.000000000000000  0.000000000000000
  0.011943909085856  0.577350269189626  0.577350269189626  0.577350269189626
  0.011110555710603  0.369602846454150  0.369602846454150  0.852518311701268
  0.011876501294537  0.694354006602666  0.694354006602666  0.189063552885395
  0.011812303746904  0.374243039090341  0.000000000000000  0.927330657151172
   total no. of   reducible points:  86; test:  1.00000000
  0.003828270494937  1.000000000000000  0.000000000000000  0.000000000000000
  0.009793737512488  0.577350269189626  0.577350269189626  0.577350269189626
  0.008211737283191  0.185115635344736  0.185115635344736  0.965124035086594
  0.009942814891178  0.690421048382292  0.690421048382292  0.215957291845848
  0.009595471336071  0.395689473055942  0.395689473055942  0.828769981252592
  0.009694996361663  0.478369028812150  0.000000000000000  0.878158910604066
   total no. of   reducible points: 110; test:  1.00000000
  0.000599631368862  1.000000000000000  0.000000000000000  0.000000000000000
  0.007372999718621  0.707106781186547  0.707106781186547  0.000000000000000
  0.007210515360144  0.577350269189626  0.577350269189626  0.577350269189626
  0.007116355493118  0.676441040011426  0.676441040011426  0.291298882209527
  0.006753829486314  0.417496122796545  0.417496122796545  0.807089818359583
  0.007574394159054  0.157467667203908  0.157467667203908  0.974888643677173
  0.006991087353303  0.140355381171318  0.449332832326956  0.882270011260323
   total no. of   reducible points: 146; test:  1.00000000
  0.005544842902037  1.000000000000000  0.000000000000000  0.000000000000000
  0.006071332770671  0.707106781186547  0.707106781186547  0.000000000000000
  0.006383674773515  0.577350269189626  0.577350269189626  0.577350269189626
  0.005183387587748  0.255125262111413  0.255125262111413  0.932642590312691
  0.006317929009814  0.674360146036277  0.674360146036277  0.300793595137701
  0.006201670006589  0.431891069671941  0.431891069671941  0.791795559393492
  0.005477143385137  0.261393136033599  0.000000000000000  0.965232421976448
  0.005968383987681  0.499045316179604  0.144663074432512  0.854415804684659
   total no. of   reducible points: 170; test:  1.00000000
  0.001782340447245  1.000000000000000  0.000000000000000  0.000000000000000
  0.005716905949977  0.707106781186547  0.707106781186547  0.000000000000000
  0.005573383178849  0.577350269189626  0.577350269189626  0.577350269189626
  0.005608704082588  0.671297344269523  0.671297344269523  0.314196994182586
  0.005158237711805  0.289246562757544  0.289246562757544  0.912509096867474
  0.005518771467274  0.444693317871744  0.444693317871744  0.777493219314767
  0.004106777028169  0.129933544765007  0.129933544765007  0.982972302707253
  0.005051846064615  0.345770219761128  0.000000000000000  0.938319218137592
  0.005530248916233  0.159041710538353  0.836036015482459  0.525118572443642
   total no. of   reducible points: 194; test:  1.00000000
 -0.055226399197273  1.000000000000000  0.000000000000000  0.000000000000000
  0.004450274607445  0.577350269189626  0.577350269189626  0.577350269189626
  0.004496841067921  0.449204468739761  0.449204468739761  0.772289253148364
  0.005049153450479  0.252041949021020  0.252041949021020  0.934317778845812
  0.003976408018052  0.698190665844724  0.698190665844724  0.158302205463478
  0.004401400650381  0.658740524346096  0.658740524346096  0.363485684956727
  0.017245443505444  0.040385440500977  0.040385440500977  0.998367683967727
  0.004231083095357  0.582384230971558  0.000000000000000  0.812913653173365
  0.005198069864064  0.354587739051869  0.000000000000000  0.935022745880593
  0.004695720972569  0.227218180899819  0.486466153588665  0.843636521068894
   total no. of   reducible points: 230; test:  1.00000000
 -0.001313769127327  1.000000000000000  0.000000000000000  0.000000000000000
 -0.002522728704859  0.707106781186547  0.707106781186547  0.000000000000000
  0.004186853881701  0.577350269189626  0.577350269189626  0.577350269189626
  0.005315167977811  0.703937339158548  0.703937339158548  0.094575076403713
  0.004047142377086  0.101252624857241  0.101252624857241  0.989694807462905
  0.004112482394407  0.464744872642054  0.464744872642054  0.753673939250816
  0.003595584899759  0.327742065497163  0.327742065497163  0.886098344997499
  0.004256131351428  0.662033866369997  0.662033866369997  0.351315128564633
  0.004229582700647  0.850650808352040  0.000000000000000  0.525731112119134
  0.004080914225781  0.323348454269290  0.115311201100970  0.939227929749916
  0.004071467593831  0.231479015871260  0.524493924092236  0.819343388819120
   total no. of   reducible points: 266; test:  1.00000000
  0.000854591172513  1.000000000000000  0.000000000000000  0.000000000000000
  0.003599119285026  0.577350269189626  0.577350269189626  0.577350269189626
  0.003449788424306  0.351564034557011  0.351564034557011  0.867643624544083
  0.003604822601420  0.656632941021961  0.656632941021961  0.371034178384821
  0.003576729661743  0.472905413258100  0.472905413258100  0.743452042987556
  0.002352101413689  0.096183085226148  0.096183085226148  0.990705621379408
  0.003108953122414  0.221964523629418  0.221964523629418  0.949454317226443
  0.003650045807677  0.701176641608955  0.701176641608955  0.129238672710514
  0.002982344963172  0.264415288706066  0.000000000000000  0.964408914879206
  0.003600820932216  0.571895589187896  0.000000000000000  0.820326419827759
  0.003571540554273  0.251003475177047  0.800072749407395  0.544867737258077
  0.003392312205006  0.123354853258333  0.412772408316853  0.902442529533000
   total no. of   reducible points: 302; test:  1.00000000
  0.003006796749454  1.000000000000000  0.000000000000000  0.000000000000000
  0.003050627745651  0.577350269189626  0.577350269189626  0.577350269189626
  0.001621104600289  0.706896546391232  0.706896546391232  0.024383301669356
  0.003005701484902  0.479468262571203  0.479468262571203  0.734996850587746
  0.002990992529654  0.192753315487802  0.192753315487802  0.962129055136014
  0.002982170644108  0.693035796132712  0.693035796132712  0.198501311223365
  0.002721564237311  0.360830211552009  0.360830211552009  0.860001812127547
  0.003033513795811  0.649848616149617  0.649848616149617  0.394199888605839
  0.003007949555219  0.193294501323034  0.000000000000000  0.981140782843257
  0.002881964603055  0.380049491989930  0.000000000000000  0.924966152698679
  0.002958357626536  0.289955882549957  0.793453785658232  0.535123047718276
  0.003036020026407  0.096841214551040  0.828080150668686  0.552182074349399
  0.002832187403926  0.183343464704166  0.907465826530513  0.378009189874487
   total no. of   reducible points: 350; test:  1.00000000
  0.000526589796822  1.000000000000000  0.000000000000000  0.000000000000000
  0.002548219972003  0.707106781186547  0.707106781186547  0.000000000000000
  0.002512317418927  0.577350269189626  0.577350269189626  0.577350269189626
  0.002530403801186  0.690934630750911  0.690934630750911  0.212646824707552
  0.002014279020919  0.177483605460916  0.177483605460916  0.967987158791473
  0.002501725168403  0.491434263778475  0.491434263778475  0.719016501040843
  0.002513267174598  0.645666470742426  0.645666470742426  0.407712664897770
  0.002302694782227  0.286128901030764  0.286128901030764  0.914472801120872
  0.001462495621595  0.075680843671780  0.075680843671780  0.994255912631278
  0.002445373437313  0.392725976336800  0.392725976336800  0.831584400419232
  0.002417442375639  0.881813287779429  0.000000000000000  0.471598691151316
  0.001910951282180  0.977642811118265  0.000000000000000  0.210272522857307
  0.002416930044325  0.205482369640304  0.868946032287241  0.450233038258263
  0.002512236854563  0.590515704892527  0.799927854385729  0.106801826075805
  0.002496644054553  0.555015236107681  0.771746262691590  0.310428403516654
  0.002236607760438  0.937180985855372  0.334436314534346  0.099217696364292
   total no. of   reducible points: 434; test:  1.00000000
  0.000309512129531  1.000000000000000  0.000000000000000  0.000000000000000
  0.001852379698597  0.577350269189626  0.577350269189626  0.577350269189626
  0.001871790639278  0.704095493822747  0.704095493822747  0.092190407076898
  0.001858812585438  0.680774406645524  0.680774406645524  0.270356088359165
  0.001852028828296  0.637254693925875  0.637254693925875  0.433373868777154
  0.001846715956151  0.504441970780036  0.504441970780036  0.700768575373573
  0.001818471778163  0.421576178401097  0.421576178401097  0.802836877335274
  0.001749564657281  0.331792073647212  0.331792073647212  0.883078727934133
  0.001617210647254  0.238473670142189  0.238473670142189  0.941414158220403
  0.001384737234852  0.145903644915776  0.145903644915776  0.978480583762694
  0.000976433116505  0.060950341155072  0.060950341155072  0.996278129754016
  0.001857161196774  0.611684344200988  0.000000000000000  0.791101929626902
  0.001705153996396  0.396475534819986  0.000000000000000  0.918045287711454
  0.001300321685886  0.172478200990772  0.000000000000000  0.985013335028002
  0.001842866472905  0.561026380862206  0.351828092773352  0.749310611904116
  0.001802658934377  0.474239284255198  0.263471665593795  0.840047488359050
  0.001849830560444  0.598412649788538  0.181664084036021  0.780320742479920
  0.001713904507107  0.379103540769556  0.172079522565688  0.909213475092374
  0.001555213603397  0.277867319058624  0.082130215819325  0.957102074310073
  0.001802239128009  0.503356427107512  0.089992058420749  0.859379855890721
   total no. of   reducible points: 590; test:  1.00000000
  0.000219294208818  1.000000000000000  0.000000000000000  0.000000000000000
  0.001436433617319  0.707106781186547  0.707106781186547  0.000000000000000
  0.001421940344336  0.577350269189626  0.577350269189626  0.577350269189626
  0.000679812351105  0.050872044105024  0.050872044105024  0.997408677652823
  0.000991318423529  0.122819879017883  0.122819879017883  0.984799753572301
  0.001180207833239  0.202689081440879  0.202689081440879  0.958036675983391
  0.001296599602081  0.284774515646429  0.284774515646429  0.915317950483155
  0.001365871427428  0.365671907897803  0.365671907897803  0.855901928697887
  0.001402988604775  0.442826488671347  0.442826488671347  0.779621319527635
  0.001418645563596  0.514061962724974  0.514061962724974  0.686644447264154
  0.001421376741852  0.630640121916680  0.630640121916680  0.452311920313658
  0.001423996475491  0.671688333202261  0.671688333202261  0.312521305001653
  0.001431554042179  0.697979268533688  0.697979268533688  0.160155803498829
  0.000925440149987  0.144686567419531  0.000000000000000  0.989477537495599
  0.001250239995054  0.339026347541122  0.000000000000000  0.940776878793759
  0.001394365843329  0.533580465126351  0.000000000000000  0.845749305193653
  0.001127089094672  0.069440243933494  0.235518789424233  0.969385863498432
  0.001345753760911  0.226900410952946  0.410218247404573  0.883310360522113
  0.001424957283317  0.080255746077753  0.621430241748161  0.779348105702661
  0.001261523341238  0.146799952789657  0.324528434571739  0.934414827052402
  0.001392547106053  0.157150776982473  0.522448218969663  0.838064133458312
  0.001418761677878  0.236570299315725  0.601754663408956  0.762840624604670
  0.001338366684480  0.077148158667657  0.434657551614116  0.897285336132833
  0.001393700862676  0.306293666621073  0.490882658903762  0.815609223203975
  0.001415914757467  0.382247737952479  0.564876814909950  0.731300793659766
   total no. of   reducible points: 770; test:  1.00000000
  0.000143829419053  1.000000000000000  0.000000000000000  0.000000000000000
  0.001125772288287  0.577350269189626  0.577350269189626  0.577350269189626
  0.000494802934195  0.042929635453413  0.042929635453413  0.998155345023847
  0.000735799010913  0.105142685408640  0.105142685408640  0.988883224354686
  0.000888913277130  0.175002486762309  0.175002486762309  0.968890220434707
  0.000988834783892  0.247765337965026  0.247765337965026  0.936602730407163
  0.001053299681709  0.320656712395596  0.320656712395596  0.891267942647606
  0.001092778807015  0.391652074984998  0.391652074984998  0.832596723702352
  0.001114389394063  0.459082587418762  0.459082587418762  0.760582905315251
  0.001123724788052  0.521456388841586  0.521456388841586  0.675400969108414
  0.001125239325244  0.625317024465420  0.625317024465420  0.466858905695743
  0.001126153271816  0.663792674452317  0.663792674452317  0.344613654237438
  0.001130286931124  0.691041039849830  0.691041039849830  0.211954151850184
  0.001134986534364  0.705290700745776  0.705290700745776  0.071624401449956
  0.000682336792711  0.123668676265799  0.000000000000000  0.992323565431490
  0.000945415816045  0.294077711446839  0.000000000000000  0.955781512496548
  0.001074429975386  0.469775384920765  0.000000000000000  0.882785980701182
  0.001129300086569  0.633456324113957  0.000000000000000  0.773778447257375
  0.000843688450090  0.059740486141813  0.202912875277752  0.977372722845310
  0.001075255720449  0.137576040847364  0.460262194248405  0.877058461865803
  0.001108577236864  0.339101652633629  0.503067399966204  0.794942299964208
  0.000956647532378  0.127167519143982  0.281760642244213  0.951020169374390
  0.001080663250717  0.269312074041351  0.433156129172016  0.860143461601762
  0.001126797131196  0.141978645260192  0.625616735858081  0.767102186220558
  0.001022568715358  0.067092846007383  0.379839521685916  0.922616110730809
  0.001108960267713  0.070577381832562  0.551750542142352  0.831017552413474
  0.001122790653436  0.278388847788215  0.602961915615919  0.747620610834086
  0.001032401847117  0.197957893891741  0.358960632958910  0.912118378409121
  0.001107249382284  0.208730706110327  0.534866643813548  0.818748536281022
  0.001121780048520  0.405512213787284  0.567499754607437  0.716591845467024
   total no. of   reducible points: 974; test:  1.00000000
  qrot: 

              1        2        3      
    1    1.0000   0.0000   0.0000
    2    0.0000   1.0000   0.0000
    3    0.0000   0.0000   1.0000
  me                     0   done genpts
  me                     1   done genpts
  me                     2   done genpts
  me                     3   done genpts
  me                     5   done genpts
  me                     7   done genpts
  me                     4   done genpts
  me                     6   done genpts
  me                     0   done uprt
  me                     1   done uprt
  me                     2   done uprt
  me                     3   done uprt
  me                     4   done uprt
  me                     5   done uprt
  me                     6   done uprt
  me                     7   done uprt
  me                     0  done mem
  me                     1  done mem
  me                     2  done mem
  me                     3  done mem
  me                     4  done mem
  me                     5  done mem
  me                     6  done mem
  me                     7  done mem
  dftinpanae: itol2e                     8  iaoacc                    14  tol_rho    1.0000000000000000E-010

            General Information
            -------------------
          SCF calculation type: DFT
          Wavefunction type:  spin polarized.
          No. of atoms     :     1
          No. of electrons :    34
           Alpha electrons :    18
            Beta electrons :    16
          Charge           :     0
          Spin multiplicity:     3
          Use of symmetry is: off; symmetry adaption is: off
          Maximum number of iterations:  50
          AO basis - number of functions:    69
                     number of shells:    19
          Convergence on energy requested:  1.00D-06
          Convergence on density requested:  1.00D-05
          Convergence on gradient requested:  5.00D-04

              XC Information
              --------------
                     Hartree-Fock (Exact) Exchange  1.000          
                     LC-wPBE(h)Exchange Functional  1.000          
            Perdew 1991 LDA Correlation Functional  1.000 local    
           PerdewBurkeErnz. Correlation Functional  1.000 non-local

           Range-Separation Parameters        
           ---------------------------
           Alpha           :  0.00
           Beta            :  1.00
           Gamma           :  0.27
           Short-Range HF  :     F

             Grid Information
             ----------------
          Grid used for XC integration:  fine      
          Radial quadrature: Mura-Knowles        
          Angular quadrature: Lebedev. 
          Tag              B.-S. Rad. Rad. Pts. Rad. Cut. Ang. Pts.
          ---              ---------- --------- --------- ---------
          Se                  1.15      140          10.0       974
          Grid pruning is: on 
          Number of quadrature shells:   140
          Spatial weights used:  Erf1

          Convergence Information
          -----------------------
          Convergence aids based upon iterative change in 
          total energy or number of iterations. 
          Levelshifting, if invoked, occurs when the 
          HOMO/LUMO gap drops below (HL_TOL):  1.00D-02
          DIIS, if invoked, will attempt to extrapolate 
          using up to (NFOCK): 10 stored Fock matrices.

                    Damping( 0%)  Levelshifting(0.5)       DIIS
                  --------------- ------------------- ---------------
          dE  on:    start            ASAP                start   
          dE off:    2 iters         50 iters            50 iters 


      Screening Tolerance Information
      -------------------------------
          Density screening/tol_rho:  1.00D-10
          AO Gaussian exp screening on grid/accAOfunc:  14
          CD Gaussian exp screening on grid/accCDfunc:  20
          XC Gaussian exp screening on grid/accXCfunc:  20
          Schwarz screening/accCoul:  1.00D-08



                         Geometry "geometry" -> "geometry"
                         ---------------------------------

 Output coordinates in angstroms (scale by  1.889725989 to convert to a.u.)

  No.       Tag          Charge          X              Y              Z
 ---- ---------------- ---------- -------------- -------------- --------------
    1 Se                  34.0000     0.00000000     0.00000000     0.00000000

      Atomic Mass 
      ----------- 

      Se                78.918300


 Effective nuclear repulsion energy (a.u.)       0.0000000000

            Nuclear Dipole moment (a.u.) 
            ----------------------------
        X                 Y               Z
 ---------------- ---------------- ----------------
     0.0000000000     0.0000000000     0.0000000000

  
  CAM type calculations without CDFIT are
  only available with the direct option.
  Forcing Direct SCF
  


     <<<<<<    Before call to DFT_SCF.    >>>>>>
     <<<<<< date:  May  8  time: 11:55:20 >>>>>>


 Setting tolerance for linear dependence to 1.00D-05





 Setting tolerance for linear dependence to 1.00D-05

 Setting tolerance for linear dependence to 1.00D-05

 Setting tolerance for linear dependence to 1.00D-05
 Setting tolerance for linear dependence to 1.00D-05
 Setting tolerance for linear dependence to 1.00D-05
 Setting tolerance for linear dependence to 1.00D-05
 Setting tolerance for linear dependence to 1.00D-05
  lindep tolerance =    1.0000000000000001E-005
  lindep tolerance =    1.0000000000000001E-005
  lindep tolerance =    1.0000000000000001E-005
  lindep tolerance =    1.0000000000000001E-005
  lindep tolerance =    1.0000000000000001E-005
  lindep tolerance =    1.0000000000000001E-005
  lindep tolerance =    1.0000000000000001E-005
  lindep tolerance =    1.0000000000000001E-005


     <<<<<<    Before 3c-2e initialize.   >>>>>>
     <<<<<< date:  May  8  time: 11:55:20 >>>>>>


 Setting fock-build task_bf   :      -1
                    maxquartet:   10000
                    maxeri    :  129600
                    maxscr    :       0
                    intacc    : 0.0D+00
                    denscreen : T
                    dentol    : 1.0D-06


      Superposition of Atomic Density Guess
      -------------------------------------

 Sum of atomic energies:       -2399.85141671

      Non-variational initial energy
      ------------------------------

 Total energy =   -2399.589155
 1-e energy   =   -3343.354635
 2-e energy   =     943.765480
 HOMO         =      -0.267156
 LUMO         =      -0.267156


 Setting fock-build task_bf   :      -1
                    maxquartet:   10000
                    maxeri    :  129600
                    maxscr    :       0
                    intacc    : 0.0D+00
                    denscreen : T
                    dentol    : 1.0D-06


 Wrote molecular orbitals to ./se.movecs

  WARNING: movecs_in_org=atomic not equal to movecs_in=./se.movecs
   Time after variat. SCF:      6.7

 Setting fock-build task_bf   :      -1
                    maxquartet:   10000
                    maxeri    :  129600
                    maxscr    :       0
                    intacc    : 0.0D+00
                    denscreen : T
                    dentol    : 1.0D-06

   Time prior to 1st pass:      6.7


     <<<<<<      Before SCF iter loop.    >>>>>>
     <<<<<< date:  May  8  time: 11:55:27 >>>>>>

           DAMPING=T LEVELSHIFTING=F DIISING=T
          itol2e= 8 iAOacc=12 iXCacc=20


     <<<<<<            calling 1-e int    >>>>>>
     <<<<<< date:  May  8  time: 11:55:27 >>>>>>

    Kinetic Matrix Time:          0.0s

           Kinetic energy =   2399.264894125156

    Potential Matrix Time:          0.0s


     <<<<<<    Before call to GETVXC.     >>>>>>
     <<<<<< date:  May  8  time: 11:55:27 >>>>>>



     <<<<<<    Before call to fock_2e.    >>>>>>
     <<<<<< date:  May  8  time: 11:55:27 >>>>>>



     <<<<<<     After call to fock_2e.    >>>>>>
     <<<<<< date:  May  8  time: 11:55:29 >>>>>>

    Fock_2e Build Time:          2.1s
  *** grid_quadv0:                    calc_type:                    1
  *** grid_quadv0:                    grid_written: F
  *** grid_quadv0:                    grad: T
  *** grid_quadv0:                    kske: F
  *** grid_quadv0:                    kslap: F
  *** grid_quadv0:                    do_scf: T
  *** grid_quadv0:                    calc_type:                    1
  *** grid_quadv0:                    fde_option:                    0
  *** grid_quadv0:                    n_per_rec:                 3070
  *** grid_quadv0:                    calc_type:                    1
  *** grid_quadv0:                    grid_written: F
  *** grid_quadv0:                    grad: T
  *** grid_quadv0:                    kske: F
  *** grid_quadv0:                    kslap: F
  *** grid_quadv0:                    do_scf: T
  *** grid_quadv0:                    fde_option:                    0
  *** grid_quadv0:                    n_per_rec:                 3070
  *** grid_quadv0:                    grid_written: F
  *** grid_quadv0:                    grad: T
  *** grid_quadv0:                    kske: F
  *** grid_quadv0:                    kslap: F
  *** grid_quadv0:                    do_scf: T
  *** grid_quadv0:                    fde_option:                    0
  *** grid_quadv0:                    n_per_rec:                 3070
  *** grid_quadv0:                    calc_type:                    1
  *** grid_quadv0:                    grid_written: F
  *** grid_quadv0:                    grad: T
  *** grid_quadv0:                    kske: F
  *** grid_quadv0:                    kslap: F
  *** grid_quadv0:                    do_scf: T
  *** grid_quadv0:                    fde_option:                    0
  *** grid_quadv0:                    n_per_rec:                 3070
  *** grid_quadv0:                    calc_type:                    1
  *** grid_quadv0:                    grid_written: F
  *** grid_quadv0:                    grad: T
  *** grid_quadv0:                    kske: F
  *** grid_quadv0:                    kslap: F
  *** grid_quadv0:                    do_scf: T
  *** grid_quadv0:                    fde_option:                    0
  *** grid_quadv0:                    n_per_rec:                 3070
  *** grid_quadv0:                    calc_type:                    1
  *** grid_quadv0:                    grid_written: F
  *** grid_quadv0:                    grad: T
  *** grid_quadv0:                    kske: F
  *** grid_quadv0:                    kslap: F
  *** grid_quadv0:                    do_scf: T
  *** grid_quadv0:                    fde_option:                    0
  *** grid_quadv0:                    n_per_rec:                 3070
  *** grid_quadv0:                    calc_type:                    1
  *** grid_quadv0:                    grid_written: F
  *** grid_quadv0:                    grad: T
  *** grid_quadv0:                    kske: F
  *** grid_quadv0:                    kslap: F
  *** grid_quadv0:                    do_scf: T
  *** grid_quadv0:                    fde_option:                    0
  *** grid_quadv0:                    n_per_rec:                 3070
  *** grid_quadv0:                    calc_type:                    1
  *** grid_quadv0:                    grid_written: F
  *** grid_quadv0:                    grad: T
  *** grid_quadv0:                    kske: F
  *** grid_quadv0:                    kslap: F
  *** grid_quadv0:                    do_scf: T
  *** grid_quadv0:                    fde_option:                    0
  *** grid_quadv0:                    n_per_rec:                 3070
   1: nuse=   8 avail= 12500000Mb on .
   2: nuse=   8 avail= 12500000Mb on .
   3: nuse=   8 avail= 12500000Mb on .
   4: nuse=   8 avail= 12500000Mb on .
   5: nuse=   8 avail= 12500000Mb on .
   6: nuse=   8 avail= 12500000Mb on .
   7: nuse=   8 avail= 12500000Mb on .
   0: nuse=   8 avail= 12500000Mb on .
 l_cube input   11.00

  atom type   l_cube   no. cubes   segmts   rad   sub
 ----------- -------- ----------- -------- ----- -----
        1     12.67        34         3      19     8

 Grid_pts file          = ./se.gridpts.0
 Record size in doubles =  12289        No. of grid_pts per rec  =   3070
 Max. records in memory =      8        Max. recs in file   = 126656358

 me   0 NQTOTC NQ/cube   11993     705
 me   1 NQTOTC NQ/cube    7758    3879
 me   2 NQTOTC NQ/cube    7666    3833
 me   3 NQTOTC NQ/cube    6604    1651
 me   4 NQTOTC NQ/cube    6764    6764
 me   5 NQTOTC NQ/cube    6212    2070
 me   6 NQTOTC NQ/cube    6640    3320
 me   7 NQTOTC NQ/cube    6331    2110

 XC quadr. integrated density :      34.000000 npts:    59899 nctrs:        1

    Fock_xc Build Time:          0.1s


     <<<<<<    Before call to GETVCOUL.   >>>>>>
     <<<<<< date:  May  8  time: 11:55:29 >>>>>>



     <<<<<<    End of parallel region.    >>>>>>
     <<<<<< date:  May  8  time: 11:55:29 >>>>>>

    Total Fock Matrix Build Time:          2.2s
 Etnew, Ecore, Ecoul, Exc(1), Exc(2), Totsic:   -2401.1778174613964       -3341.5531864346872        1027.1585283856691       -86.783159412377927        0.0000000000000000        0.0000000000000000     
  delta =   -2401.1778174613964     
  delta =   -2401.1778174613964     
  delta =   -2401.1778174613964     
  delta =   -2401.1778174613964     


         Total DFT energy =    -2401.177817461396
      One electron energy =    -3341.553186434687
           Coulomb energy =     1027.158528385669
    Exchange-Corr. energy =      -86.783159412378
 Nuclear repulsion energy =        0.000000000000

  delta =   -2401.1778174613964     
  delta =   -2401.1778174613964     
  delta =   -2401.1778174613964     
  delta =   -2401.1778174613964     
 Numeric. integr. density =       33.999999999427

     Total iterative time =     10.0s




     <<<<<<        calling diis driver    >>>>>>
     <<<<<< date:  May  8  time: 11:55:29 >>>>>>

 nhist                     1  pulay matrix 
   0.0000E+00
  -1.0000E+00   8.6768E-01


     <<<<<<         called diis driver    >>>>>>
     <<<<<< date:  May  8  time: 11:55:29 >>>>>>


 global array: fock transf[1:69,1:69],  handle: -940 

            1           2           3           4           5           6  
       ----------- ----------- ----------- ----------- ----------- -----------
   1       6.87403   -10.98567    -0.00000     0.00000     0.00000     5.70688
   2     -10.98567    42.57287    -0.00000     0.00000     0.00000   -34.04078
   3      -0.00000    -0.00000     2.59596    -0.00081    -0.00766    -0.00000
   4       0.00000     0.00000    -0.00081     2.59277     0.00183     0.00000
   5       0.00000     0.00000    -0.00766     0.00183     2.60985     0.00000
   6       5.70688   -34.04078    -0.00000     0.00000     0.00000    33.18453
   7      -0.00000    -0.00000     0.02625    -0.81387     0.12224    -0.00000
   8       0.00000     0.00000    -0.08074    -0.12517    -0.81660     0.00000
   9      -0.00000    -0.00000    -0.82070    -0.01288     0.09161    -0.00000
  10       0.02756     0.67803    -0.00000     0.00000     0.00000    -1.32790
  11       0.00000     0.00000    -0.00120     0.00122     0.00003    -0.00000
  12       0.13140     0.69213     0.00000    -0.00000    -0.00000    -1.01726
  13      -0.00000    -0.00000    -0.00098     0.00232     0.00082    -0.00000
  14      -0.00000     0.00000    -0.00024     0.00148     0.00064     0.00000
  15      -0.00000    -0.00000    -0.00314    -0.00156     0.00061    -0.00000
  16      -0.00046     0.00042    -0.00000    -0.00000     0.00000     0.00056
  17      -0.00154     0.00141     0.00000    -0.00000     0.00000     0.00185
  18       0.00064    -0.00059    -0.00000    -0.00000    -0.00000    -0.00077
  19      -0.00000    -0.00000     0.02837    -0.02816    -0.13019    -0.00000
  20      -0.00000    -0.00000    -0.04226     0.12870    -0.03318    -0.00000
  21       0.00000     0.00000    -0.13071    -0.04710    -0.01622     0.00000
  22      -0.00253     0.00231     0.00000    -0.00000    -0.00000     0.00305
  23       0.00229    -0.00209    -0.00000     0.00000     0.00000    -0.00275
  24       0.00000    -0.00000     0.00043    -0.00044     0.00002    -0.00000
  25      -0.00000    -0.00000     0.07099    -0.47392     0.02585     0.00000
  26       0.00000     0.00000    -0.12664     0.00682     0.46983     0.00000
  27      -0.00000    -0.00000    -0.45806    -0.07521    -0.12255    -0.00000
  28       0.00022    -0.00015    -0.00000    -0.00000    -0.00000    -0.00018
  29      -0.00015     0.00010    -0.00000    -0.00000    -0.00000     0.00012
  30      -0.00046     0.00032    -0.00000     0.00000    -0.00000     0.00037
  31      -0.00000    -0.00000    -0.00051     0.00037     0.00011    -0.00000
  32       0.00000     0.00000     0.00100     0.00037    -0.00011     0.00000
  33      -0.00000    -0.00000     0.00006     0.00099     0.00017    -0.00000
  34       0.00000     0.00000    -0.01609     0.02184     0.06156     0.00000
  35       0.00000     0.00000     0.04255    -0.03957     0.02719     0.00000
  36      -0.00000    -0.00000     0.04517     0.04504    -0.00587    -0.00000
  37       0.06856    -0.00669     0.00000    -0.00000    -0.00000    -0.34122
  38      -0.00017     0.00010    -0.00000    -0.00000    -0.00000     0.00019
  39       0.00023    -0.00014     0.00000    -0.00000     0.00000    -0.00026
  40      -0.00024     0.00015    -0.00000     0.00000    -0.00000     0.00027
  41      -0.00031     0.00022    -0.00000    -0.00000     0.00000     0.00025
  42       0.00099    -0.00069     0.00000     0.00000    -0.00000    -0.00080
  43       0.00000     0.00000     0.01274    -0.00641    -0.03551     0.00000
  44      -0.00000    -0.00000     0.00561    -0.03895     0.00905    -0.00000
  45       0.00000     0.00000    -0.03745    -0.00826    -0.01268     0.00000
  46      -0.00009     0.00006     0.00000     0.00000     0.00000     0.00009
  47      -0.00007     0.00005    -0.00000    -0.00000    -0.00000     0.00008
  48      -0.00019     0.00013    -0.00000    -0.00000    -0.00000     0.00019
  49       0.00072    -0.00045     0.00000     0.00000    -0.00000    -0.00081
  50       0.00014    -0.00009    -0.00000     0.00000    -0.00000    -0.00016
  51       0.12536    -0.40614     0.00000    -0.00000     0.00000     0.18423
  52       0.00000     0.00000    -0.00445     0.00042     0.01972    -0.00000
  53       0.00000    -0.00000    -0.01762    -0.00894    -0.00375     0.00000
  54       0.00000    -0.00000    -0.00865     0.01801    -0.00229     0.00000
  55       0.01202    -0.23060    -0.00000     0.00000     0.00000     0.29632
  56       0.00000     0.00000     0.02689    -0.04045    -0.00144     0.00000
  57      -0.00000    -0.00000     0.03842     0.02504     0.01479    -0.00000
  58       0.00000     0.00000     0.01393     0.00780    -0.05004     0.00000
  59       0.00016    -0.00011     0.00000     0.00000    -0.00000    -0.00017
  60      -0.00040     0.00028    -0.00000    -0.00000     0.00000     0.00042
  61      -0.00000    -0.00000    -0.01694    -0.00222     0.05647    -0.00000
  62      -0.00000    -0.00000     0.04947     0.02562     0.01579    -0.00000
  63       0.00000    -0.00000     0.02524    -0.05188     0.00520     0.00000
  64       0.02061     0.20843    -0.00000     0.00000     0.00000    -0.25184
  65      -0.17364     0.73225     0.00000    -0.00000    -0.00000    -0.54443
  66      -0.00000    -0.00000     0.04216     0.00989     0.00506    -0.00000
  67      -0.00000    -0.00000    -0.00181     0.02787    -0.03403    -0.00000
  68       0.00000     0.00000    -0.01172     0.03190     0.02868     0.00000
  69      -0.07429     0.20055    -0.00000     0.00000     0.00000    -0.11141

            7           8           9          10          11          12  
       ----------- ----------- ----------- ----------- ----------- -----------
   1      -0.00000     0.00000    -0.00000     0.02756     0.00000     0.13140
   2      -0.00000     0.00000    -0.00000     0.67803     0.00000     0.69213
   3       0.02625    -0.08074    -0.82070    -0.00000    -0.00120     0.00000
   4      -0.81387    -0.12517    -0.01288     0.00000     0.00122    -0.00000
   5       0.12224    -0.81660     0.09161     0.00000     0.00003    -0.00000
   6      -0.00000     0.00000    -0.00000    -1.32790    -0.00000    -1.01726
   7       1.14356     0.00008     0.00007    -0.00000    -0.00208     0.00000
   8       0.00008     1.15234    -0.00582     0.00000    -0.00019    -0.00000
   9       0.00007    -0.00582     1.14706    -0.00000     0.00201     0.00000
  10      -0.00000     0.00000    -0.00000     0.88289    -0.00000     1.17466
  11      -0.00208    -0.00019     0.00201    -0.00000     1.40208    -0.00000
  12       0.00000    -0.00000     0.00000     1.17466    -0.00000     3.13216
  13      -0.00398    -0.00135     0.00151     0.00000     0.00012    -0.00000
  14      -0.00185    -0.00072     0.00103     0.00000     0.00006     0.00000
  15       0.00214     0.00039     0.00504     0.00000     0.00005    -0.00000
  16      -0.00000    -0.00000    -0.00000    -0.00066    -0.00000    -0.00001
  17      -0.00000     0.00000     0.00000    -0.00220    -0.00000    -0.00002
  18      -0.00000    -0.00000    -0.00000     0.00092     0.00000     0.00001
  19       0.02577     0.39887    -0.12523    -0.00000    -0.00226     0.00000
  20      -0.40234     0.05631     0.10877    -0.00000     0.00641     0.00000
  21       0.12041     0.11111     0.38791     0.00000     0.00309    -0.00000
  22       0.00000    -0.00000     0.00000    -0.00362    -0.00000    -0.00003
  23      -0.00000     0.00000    -0.00000     0.00327     0.00000     0.00003
  24       0.00058     0.00001    -0.00053     0.00000    -0.41431     0.00000
  25       0.66453     0.05466    -0.08433    -0.00000     0.00152     0.00000
  26       0.08218    -0.62961     0.24624     0.00000    -0.00040    -0.00000
  27       0.05816     0.24979     0.62142    -0.00000    -0.00105     0.00000
  28      -0.00000    -0.00000    -0.00000     0.00036     0.00000     0.00164
  29      -0.00000    -0.00000    -0.00000    -0.00024    -0.00000    -0.00107
  30       0.00000    -0.00000    -0.00000    -0.00074    -0.00000    -0.00334
  31      -0.00056    -0.00011     0.00056    -0.00000    -0.00007     0.00000
  32      -0.00042    -0.00018    -0.00129     0.00000     0.00005    -0.00000
  33      -0.00116    -0.00032    -0.00000    -0.00000    -0.00008    -0.00000
  34      -0.02485    -0.11287     0.04085     0.00000    -0.00073    -0.00000
  35       0.08284    -0.04554    -0.07260     0.00000     0.00163    -0.00000
  36      -0.08183    -0.01108    -0.08614    -0.00000    -0.00002     0.00000
  37       0.00000    -0.00000     0.00000     0.29875     0.00000    -0.03640
  38      -0.00000    -0.00000    -0.00000    -0.00004    -0.00000     0.00044
  39      -0.00000     0.00000     0.00000     0.00005    -0.00000    -0.00060
  40       0.00000     0.00000    -0.00000    -0.00005     0.00000     0.00064
  41      -0.00000     0.00000    -0.00000    -0.00050    -0.00000    -0.00229
  42       0.00000    -0.00000     0.00000     0.00160     0.00000     0.00728
  43      -0.00270    -0.05699     0.02861     0.00000     0.00159    -0.00000
  44      -0.06102     0.00514     0.00602    -0.00000     0.00326     0.00000
  45      -0.00788    -0.02559    -0.05537     0.00000    -0.00211    -0.00000
  46       0.00000     0.00000     0.00000     0.00010    -0.00000     0.00081
  47      -0.00000    -0.00000    -0.00000     0.00009     0.00000     0.00067
  48       0.00000    -0.00000    -0.00000     0.00022    -0.00000     0.00172
  49       0.00000    -0.00000     0.00000     0.00016     0.00000    -0.00189
  50       0.00000    -0.00000     0.00000     0.00003     0.00000    -0.00037
  51       0.00000    -0.00000    -0.00000    -0.28295     0.00000    -1.85547
  52       0.00250    -0.02005     0.00688     0.00000    -0.00002    -0.00000
  53       0.00807     0.00715     0.01808     0.00000    -0.00003     0.00000
  54      -0.01927     0.00043     0.00845     0.00000    -0.00011     0.00000
  55      -0.00000     0.00000    -0.00000    -0.37703    -0.00000    -1.72572
  56       0.06225     0.00669    -0.03984     0.00000    -0.00399    -0.00000
  57      -0.03273    -0.03342    -0.05676    -0.00000    -0.00075     0.00000
  58      -0.02188     0.06681    -0.02798     0.00000    -0.00034    -0.00000
  59       0.00000    -0.00000     0.00000    -0.00019    -0.00000    -0.00150
  60      -0.00000     0.00000    -0.00000     0.00048    -0.00000     0.00369
  61       0.01370    -0.07280     0.03165    -0.00000     0.00072     0.00000
  62      -0.03033    -0.03416    -0.06784    -0.00000    -0.00101     0.00000
  63       0.07478     0.00034    -0.03356     0.00000    -0.00340    -0.00000
  64      -0.00000     0.00000    -0.00000     0.16627     0.00000     0.78233
  65       0.00000    -0.00000     0.00000     0.24609    -0.00000     1.33430
  66      -0.00566    -0.00766    -0.03074    -0.00000    -0.00157     0.00000
  67      -0.02395     0.02145    -0.00180    -0.00000     0.00150     0.00000
  68      -0.02048    -0.02350     0.01071     0.00000     0.00215    -0.00000
  69      -0.00000     0.00000    -0.00000     0.01466    -0.00000     0.22327

           13          14          15          16          17          18  
       ----------- ----------- ----------- ----------- ----------- -----------
   1      -0.00000    -0.00000    -0.00000    -0.00046    -0.00154     0.00064
   2      -0.00000     0.00000    -0.00000     0.00042     0.00141    -0.00059
   3      -0.00098    -0.00024    -0.00314    -0.00000     0.00000    -0.00000
   4       0.00232     0.00148    -0.00156    -0.00000    -0.00000    -0.00000
   5       0.00082     0.00064     0.00061     0.00000     0.00000    -0.00000
   6      -0.00000     0.00000    -0.00000     0.00056     0.00185    -0.00077
   7      -0.00398    -0.00185     0.00214    -0.00000    -0.00000    -0.00000
   8      -0.00135    -0.00072     0.00039    -0.00000     0.00000    -0.00000
   9       0.00151     0.00103     0.00504    -0.00000     0.00000    -0.00000
  10       0.00000     0.00000     0.00000    -0.00066    -0.00220     0.00092
  11       0.00012     0.00006     0.00005    -0.00000    -0.00000     0.00000
  12      -0.00000     0.00000    -0.00000    -0.00001    -0.00002     0.00001
  13       1.40028     0.00369     0.00147     0.00000    -0.00000    -0.00000
  14       0.00369     1.40027    -0.00475     0.00000    -0.00000     0.00000
  15       0.00147    -0.00475     1.40612    -0.00000     0.00000     0.00000
  16       0.00000     0.00000    -0.00000     1.32827     0.00027    -0.00161
  17      -0.00000    -0.00000     0.00000     0.00027     1.32560    -0.00802
  18      -0.00000     0.00000     0.00000    -0.00161    -0.00802     1.31485
  19      -0.00235    -0.00008     0.00059     0.00000     0.00000     0.00000
  20       0.01168     0.00403     0.00011    -0.00000    -0.00000     0.00000
  21      -0.00120     0.00455     0.01198     0.00000    -0.00000     0.00000
  22       0.00000     0.00000    -0.00000     0.00301     0.00047     0.00071
  23      -0.00000     0.00000     0.00000     0.00243    -0.00405     0.00097
  24       0.00010     0.00005     0.00004     0.00000    -0.00000     0.00000
  25       0.00334     0.00011    -0.00006     0.00000     0.00000    -0.00000
  26       0.00085     0.00067     0.00094    -0.00000    -0.00000     0.00000
  27      -0.00016    -0.00254    -0.00264     0.00000    -0.00000     0.00000
  28      -0.00000    -0.00000     0.00000    -0.46511    -0.06030     0.05955
  29       0.00000    -0.00000    -0.00000    -0.05507    -0.02979    -0.46408
  30      -0.00000    -0.00000    -0.00000    -0.06341     0.46701    -0.02671
  31       0.34941    -0.18473     0.12064    -0.00000     0.00000     0.00000
  32       0.03503    -0.16843    -0.37607     0.00000    -0.00000     0.00000
  33       0.21795     0.32932    -0.13024    -0.00000     0.00000     0.00000
  34       0.00008     0.00113     0.00140    -0.00000    -0.00000     0.00000
  35       0.00274     0.00197     0.00193     0.00000     0.00000    -0.00000
  36      -0.00229     0.00234     0.00127    -0.00000     0.00000    -0.00000
  37       0.00000     0.00000    -0.00000    -0.00231    -0.00767     0.00321
  38      -0.00000    -0.00000    -0.00000    -0.18752     0.21422     0.02931
  39      -0.00000     0.00000     0.00000    -0.03578    -0.07386     0.27216
  40       0.00000     0.00000     0.00000     0.21471     0.17506     0.06937
  41      -0.00000     0.00000    -0.00000     0.00113    -0.00050     0.00033
  42      -0.00000     0.00000    -0.00000     0.00018    -0.00108     0.00013
  43       0.00292     0.00170     0.00253    -0.00000    -0.00000     0.00000
  44       0.00579     0.00267    -0.00231    -0.00000    -0.00000     0.00000
  45      -0.00034    -0.00062    -0.00716    -0.00000     0.00000    -0.00000
  46      -0.00000    -0.00000    -0.00000    -0.11910    -0.02473    -0.01316
  47       0.00000    -0.00000    -0.00000     0.02714    -0.08785    -0.08086
  48       0.00000     0.00000     0.00000     0.00695    -0.08143     0.09099
  49      -0.00000     0.00000     0.00000    -0.00049    -0.00093    -0.00003
  50       0.00000     0.00000     0.00000     0.00134    -0.00119     0.00044
  51      -0.00000     0.00000    -0.00000    -0.00000    -0.00002     0.00001
  52      -0.00009    -0.00006    -0.00011    -0.00000     0.00000    -0.00000
  53       0.00002     0.00007    -0.00023    -0.00000    -0.00000    -0.00000
  54      -0.00015    -0.00010     0.00002     0.00000     0.00000     0.00000
  55      -0.00000     0.00000    -0.00000     0.00011     0.00035    -0.00015
  56      -0.00584    -0.00340    -0.00092    -0.00000    -0.00000     0.00000
  57       0.00152     0.00266    -0.00767     0.00000    -0.00000     0.00000
  58      -0.00211    -0.00130    -0.00465     0.00000    -0.00000     0.00000
  59      -0.00000     0.00000     0.00000    -0.00004    -0.00004     0.00001
  60       0.00000     0.00000     0.00000     0.00003     0.00015    -0.00005
  61       0.00239     0.00152     0.00367    -0.00000     0.00000    -0.00000
  62       0.00082     0.00174    -0.00691     0.00000    -0.00000     0.00000
  63      -0.00505    -0.00299     0.00028    -0.00000    -0.00000     0.00000
  64       0.00000    -0.00000     0.00000    -0.00110    -0.00364     0.00152
  65       0.00000    -0.00000     0.00000     0.00054     0.00180    -0.00075
  66      -0.00063     0.00083    -0.00612    -0.00000     0.00000    -0.00000
  67       0.00140     0.00084    -0.00267    -0.00000    -0.00000     0.00000
  68       0.00448     0.00310     0.00012    -0.00000    -0.00000     0.00000
  69       0.00000    -0.00000     0.00000     0.00013     0.00042    -0.00018

           19          20          21          22          23          24  
       ----------- ----------- ----------- ----------- ----------- -----------
   1      -0.00000    -0.00000     0.00000    -0.00253     0.00229     0.00000
   2      -0.00000    -0.00000     0.00000     0.00231    -0.00209    -0.00000
   3       0.02837    -0.04226    -0.13071     0.00000    -0.00000     0.00043
   4      -0.02816     0.12870    -0.04710    -0.00000     0.00000    -0.00044
   5      -0.13019    -0.03318    -0.01622    -0.00000     0.00000     0.00002
   6      -0.00000    -0.00000     0.00000     0.00305    -0.00275    -0.00000
   7       0.02577    -0.40234     0.12041     0.00000    -0.00000     0.00058
   8       0.39887     0.05631     0.11111    -0.00000     0.00000     0.00001
   9      -0.12523     0.10877     0.38791     0.00000    -0.00000    -0.00053
  10      -0.00000    -0.00000     0.00000    -0.00362     0.00327     0.00000
  11      -0.00226     0.00641     0.00309    -0.00000     0.00000    -0.41431
  12       0.00000     0.00000    -0.00000    -0.00003     0.00003     0.00000
  13      -0.00235     0.01168    -0.00120     0.00000    -0.00000     0.00010
  14      -0.00008     0.00403     0.00455     0.00000     0.00000     0.00005
  15       0.00059     0.00011     0.01198    -0.00000     0.00000     0.00004
  16       0.00000    -0.00000     0.00000     0.00301     0.00243     0.00000
  17       0.00000    -0.00000    -0.00000     0.00047    -0.00405    -0.00000
  18       0.00000     0.00000     0.00000     0.00071     0.00097     0.00000
  19       1.39518     0.00129    -0.00187     0.00000    -0.00000     0.00130
  20       0.00129     1.38292    -0.00001     0.00000    -0.00000    -0.00382
  21      -0.00187    -0.00001     1.38322    -0.00000     0.00000    -0.00183
  22       0.00000     0.00000    -0.00000     1.32513    -0.01113    -0.00000
  23      -0.00000    -0.00000     0.00000    -0.01113     1.32100     0.00000
  24       0.00130    -0.00382    -0.00183    -0.00000     0.00000     0.84394
  25       0.02663    -0.13845     0.02676    -0.00000     0.00000     0.00153
  26      -0.14322    -0.01929     0.02029    -0.00000     0.00000    -0.00042
  27       0.00935     0.02923     0.13985     0.00000    -0.00000    -0.00106
  28       0.00000    -0.00000     0.00000    -0.00086    -0.00053    -0.00000
  29       0.00000    -0.00000     0.00000    -0.00033    -0.00028    -0.00000
  30      -0.00000     0.00000     0.00000    -0.00001    -0.00128     0.00000
  31      -0.00132     0.00457     0.00053    -0.00000     0.00000    -0.00010
  32       0.00007    -0.00024    -0.00765     0.00000     0.00000     0.00007
  33      -0.00124     0.00558    -0.00083    -0.00000    -0.00000    -0.00011
  34       0.38788    -0.05903     0.00112    -0.00000     0.00000     0.00364
  35       0.05751     0.33682     0.17849    -0.00000     0.00000    -0.00749
  36      -0.03083    -0.17643     0.34055     0.00000    -0.00000     0.00003
  37       0.00000     0.00000    -0.00000    -0.01263     0.01140     0.00000
  38       0.00000    -0.00000     0.00000    -0.00056    -0.00166     0.00000
  39       0.00000    -0.00000    -0.00000     0.00006     0.00061     0.00000
  40      -0.00000     0.00000     0.00000     0.00101    -0.00016    -0.00000
  41      -0.00000    -0.00000     0.00000     0.40480     0.23583     0.00000
  42       0.00000     0.00000    -0.00000    -0.24210     0.40707    -0.00000
  43      -0.01932     0.00387     0.00513    -0.00000     0.00000    -0.00193
  44      -0.00300     0.02855    -0.00502     0.00000    -0.00000    -0.00401
  45      -0.00178    -0.00440    -0.02860    -0.00000     0.00000     0.00258
  46      -0.00000     0.00000    -0.00000     0.00007    -0.00003     0.00000
  47      -0.00000     0.00000     0.00000     0.00004    -0.00005    -0.00000
  48      -0.00000     0.00000     0.00000     0.00009    -0.00011     0.00000
  49       0.00000     0.00000    -0.00000    -0.24712     0.15060    -0.00000
  50       0.00000     0.00000    -0.00000     0.14435     0.24158    -0.00000
  51      -0.00000    -0.00000    -0.00000    -0.00002     0.00002     0.00000
  52       0.22253     0.03613    -0.01765     0.00000    -0.00000     0.00001
  53      -0.02138     0.02245    -0.22477    -0.00000    -0.00000     0.00002
  54       0.03428    -0.22286    -0.02550     0.00000     0.00000     0.00005
  55      -0.00000     0.00000     0.00000     0.00058    -0.00052    -0.00000
  56       0.03208    -0.10117    -0.02519    -0.00000     0.00000     0.00236
  57      -0.02114     0.01861    -0.10269     0.00000    -0.00000     0.00045
  58       0.08760     0.02887    -0.02156    -0.00000     0.00000     0.00016
  59       0.00000     0.00000    -0.00000     0.11013     0.05342     0.00000
  60      -0.00000    -0.00000     0.00000    -0.05299     0.10999    -0.00000
  61       0.29689     0.06027    -0.04633     0.00000    -0.00000    -0.00021
  62       0.05600    -0.02326     0.28640     0.00000    -0.00000     0.00035
  63      -0.04856     0.28556     0.03309     0.00000    -0.00000     0.00117
  64      -0.00000    -0.00000     0.00000    -0.00599     0.00541    -0.00000
  65       0.00000     0.00000    -0.00000     0.00296    -0.00267    -0.00000
  66       0.00236     0.00101     0.00852     0.00000    -0.00000     0.00387
  67      -0.01361    -0.01014    -0.00064     0.00000    -0.00000    -0.00356
  68       0.01157    -0.00230     0.00246    -0.00000     0.00000    -0.00539
  69      -0.00000    -0.00000     0.00000     0.00070    -0.00063     0.00000

           25          26          27          28          29          30  
       ----------- ----------- ----------- ----------- ----------- -----------
   1      -0.00000     0.00000    -0.00000     0.00022    -0.00015    -0.00046
   2      -0.00000     0.00000    -0.00000    -0.00015     0.00010     0.00032
   3       0.07099    -0.12664    -0.45806    -0.00000    -0.00000    -0.00000
   4      -0.47392     0.00682    -0.07521    -0.00000    -0.00000     0.00000
   5       0.02585     0.46983    -0.12255    -0.00000    -0.00000    -0.00000
   6       0.00000     0.00000    -0.00000    -0.00018     0.00012     0.00037
   7       0.66453     0.08218     0.05816    -0.00000    -0.00000     0.00000
   8       0.05466    -0.62961     0.24979    -0.00000    -0.00000    -0.00000
   9      -0.08433     0.24624     0.62142    -0.00000    -0.00000    -0.00000
  10      -0.00000     0.00000    -0.00000     0.00036    -0.00024    -0.00074
  11       0.00152    -0.00040    -0.00105     0.00000    -0.00000    -0.00000
  12       0.00000    -0.00000     0.00000     0.00164    -0.00107    -0.00334
  13       0.00334     0.00085    -0.00016    -0.00000     0.00000    -0.00000
  14       0.00011     0.00067    -0.00254    -0.00000    -0.00000    -0.00000
  15      -0.00006     0.00094    -0.00264     0.00000    -0.00000    -0.00000
  16       0.00000    -0.00000     0.00000    -0.46511    -0.05507    -0.06341
  17       0.00000    -0.00000    -0.00000    -0.06030    -0.02979     0.46701
  18      -0.00000     0.00000     0.00000     0.05955    -0.46408    -0.02671
  19       0.02663    -0.14322     0.00935     0.00000     0.00000    -0.00000
  20      -0.13845    -0.01929     0.02923    -0.00000    -0.00000     0.00000
  21       0.02676     0.02029     0.13985     0.00000     0.00000     0.00000
  22      -0.00000    -0.00000     0.00000    -0.00086    -0.00033    -0.00001
  23       0.00000     0.00000    -0.00000    -0.00053    -0.00028    -0.00128
  24       0.00153    -0.00042    -0.00106    -0.00000    -0.00000     0.00000
  25       1.71682    -0.00222    -0.00037     0.00000     0.00000    -0.00000
  26      -0.00222     1.74628     0.00261    -0.00000     0.00000     0.00000
  27      -0.00037     0.00261     1.71723     0.00000     0.00000     0.00000
  28       0.00000    -0.00000     0.00000     0.40433    -0.00084    -0.00095
  29       0.00000     0.00000     0.00000    -0.00084     0.38871     0.00730
  30      -0.00000     0.00000     0.00000    -0.00095     0.00730     0.40183
  31      -0.00100     0.00124     0.00160    -0.00000     0.00000    -0.00000
  32      -0.00070    -0.00180    -0.00297     0.00000    -0.00000     0.00000
  33      -0.00320     0.00086    -0.00122    -0.00000     0.00000     0.00000
  34      -0.05879     0.18415    -0.01323    -0.00000    -0.00000     0.00000
  35       0.13688     0.04500    -0.12112     0.00000    -0.00000    -0.00000
  36      -0.11176    -0.04758    -0.14171    -0.00000    -0.00000    -0.00000
  37      -0.00000    -0.00000     0.00000     0.00068    -0.00044    -0.00139
  38       0.00000     0.00000     0.00000     0.50019    -0.07378     0.73435
[...]
  39      -0.00139     0.00121    -0.00001
  40       0.00021    -0.00019     0.00000
  41      -4.16980   -16.54341    -1.94374
  42      -0.00092     0.00080    -0.00001
  43      -4.17271   -16.54089    -1.94376
  44      -0.36975    -3.00070    -0.30989
  45       0.00042    -0.00047     0.00000
  46      -0.00006     0.00007    -0.00000
  47      -0.37059    -2.99975    -0.30990
  48       0.00027    -0.00031     0.00000
  49      -0.36972    -3.00073    -0.30989
  50      -0.00000    -0.00000    -0.00000
  51      -0.00000    -0.00000    -0.00000
  52       0.00000     0.00000     0.00000
  53      -0.00000    -0.00000    -0.00000
  54      -0.00000     0.00000     0.00000
  55      -0.00000    -0.00000    -0.00000
  56      -0.00000    -0.00000    -0.00000
  57       0.00000     0.00000     0.00000
  58      -0.00000    -0.00000    -0.00000
  59       0.00000     0.00000     0.00000
  60      -0.00000    -0.00000    -0.00000
  61      -0.00000    -0.00000    -0.00000
  62       0.00000     0.00000     0.00000
  63      -0.00000    -0.00000    -0.00000
  64       0.00000    -0.00000    -0.00000
  65      -0.00000    -0.00000    -0.00000
  66      -0.00000    -0.00000    -0.00000
  67       0.00000     0.00000     0.00000
  68      -0.00000    -0.00000    -0.00000
  69       0.00000     0.00000     0.00000
  int_init: cando_txs set to always be  F
                                NWChem TDDFT Module
                                -------------------


            General Information
            -------------------
           No. of orbitals :     138
            Alpha orbitals :      69
             Beta orbitals :      69
        Alpha frozen cores :       0
         Beta frozen cores :       0
     Alpha frozen virtuals :       0
      Beta frozen virtuals :       0
         Spin multiplicity :       3
    Number of AO functions :      69
        Use of symmetry is : off
      Symmetry adaption is : off
         Schwarz screening :  0.10D-07

              XC Information
              --------------
              Hartree-Fock (Exact) Exchange   1.00          
              LC-wPBE(h)Exchange Functional   1.00          
     Perdew 1991 LDA Correlation Functional   1.00 local    
    PerdewBurkeErnz. Correlation Functional   1.00 non-local
           Alpha           :  0.00
           Beta            :  1.00
           Gamma           :  0.27

             TDDFT Information
             -----------------
          Calculation type : TDDFT             
         Wavefunction type : Unrestricted
          No. of electrons :      34
           Alpha electrons :      18
            Beta electrons :      16
              No. of roots :       5
          Max subspacesize :    5000
            Max iterations :     100
               Target root :       1
           Target symmetry : none
      Symmetry restriction : off
                 Algorithm : Optimal
        Davidson threshold :  0.10D-03

            Memory Information
            ------------------
          Available GA space size is       52428790478 doubles
          Available MA space size is        4194421852 doubles
          Length of a trial vector is          918     848
          Algorithm : Incore multiple tensor contraction
          Estimated peak GA usage is          36137508 doubles
          Estimated peak MA usage is             18000 doubles

    5 smallest eigenvalue differences (eV) 
--------------------------------------------------------
  No. Spin  Occ  Vir  Irrep   E(Occ)    E(Vir)   E(Diff)
--------------------------------------------------------
    1    2   16   17 a        -0.329    -0.084     6.659
    2    2   16   18 a        -0.329    -0.084     6.659
    3    2   16   19 a        -0.329     0.052    10.350
    4    1   18   19 a        -0.353     0.047    10.884
    5    2   16   20 a        -0.329     0.075    10.981
--------------------------------------------------------

  Entering Davidson iterations
  Unrestricted

  Iter   NTrls   NConv    DeltaV     DeltaE      Time   
  ----  ------  ------  ---------  ---------  --------- 
    1      5       0     0.11E+00   0.10+100        9.6
    2     15       0     0.50E-01   0.10E-01       11.7
    3     25       0     0.13E-01   0.16E-02       11.8
    4     33       0     0.31E-02   0.59E-04       11.1
    5     41       1     0.45E-03   0.32E-05       11.0
    6     47       5     0.52E-04   0.83E-07       10.1
  ----  ------  ------  ---------  ---------  --------- 
  Convergence criterion met

  Ground state a       -2401.200929183189 a.u.
  <S2> =   2.0042

  ----------------------------------------------------------------------------
  Root   1         a              0.000151030 a.u.                0.0041 eV 
  <S2> =   2.0062
  ----------------------------------------------------------------------------
     Transition Moments    X -0.00000   Y  0.00000   Z  0.00000
     Transition Moments   XX -0.14268  XY  0.61944  XZ  2.09287
     Transition Moments   YY -2.68896  YZ -8.97760  ZZ  2.83164
     Dipole Oscillator Strength                    0.0000000000
     Electric Quadrupole                           0.0000000000
     Magnetic Dipole                               0.0000000000
     Total Oscillator Strength                     0.0000000000

     Occ.   15 alpha a   ---  Virt.   25 alpha a   -0.05218 X
     Occ.   15 alpha a   ---  Virt.   25 alpha a   -0.05216 Y
     Occ.   15 alpha a   ---  Virt.   26 alpha a   -0.12076 X
     Occ.   15 alpha a   ---  Virt.   26 alpha a   -0.12072 Y
     Occ.   15 alpha a   ---  Virt.   34 alpha a   -0.06735 X
     Occ.   15 alpha a   ---  Virt.   34 alpha a   -0.06733 Y
     Occ.   15 alpha a   ---  Virt.   35 alpha a   -0.15565 X
     Occ.   15 alpha a   ---  Virt.   35 alpha a   -0.15561 Y
     Occ.   15 alpha a   ---  Virt.   59 alpha a   -0.05566 X
     Occ.   15 alpha a   ---  Virt.   59 alpha a   -0.05565 Y
     Occ.   16 alpha a   ---  Virt.   22 alpha a   -0.07301 X
     Occ.   16 alpha a   ---  Virt.   22 alpha a   -0.07294 Y
     Occ.   16 alpha a   ---  Virt.   31 alpha a    0.07757 X
     Occ.   16 alpha a   ---  Virt.   31 alpha a    0.07752 Y
     Occ.   16 alpha a   ---  Virt.   39 alpha a    0.08778 X
     Occ.   16 alpha a   ---  Virt.   39 alpha a    0.08775 Y
     Occ.   16 alpha a   ---  Virt.   43 alpha a   -0.06023 X
     Occ.   16 alpha a   ---  Virt.   43 alpha a   -0.06021 Y
     Occ.   16 alpha a   ---  Virt.   51 alpha a   -0.06489 X
     Occ.   16 alpha a   ---  Virt.   51 alpha a   -0.06488 Y
     Occ.   17 alpha a   ---  Virt.   40 alpha a   -0.08778 X
     Occ.   17 alpha a   ---  Virt.   40 alpha a   -0.08775 Y
     Occ.   17 alpha a   ---  Virt.   52 alpha a   -0.06489 X
     Occ.   17 alpha a   ---  Virt.   52 alpha a   -0.06488 Y
     Occ.   18 alpha a   ---  Virt.   21 alpha a   -0.07847 X
     Occ.   18 alpha a   ---  Virt.   21 alpha a   -0.07839 Y
     Occ.   18 alpha a   ---  Virt.   30 alpha a    0.07733 X
     Occ.   18 alpha a   ---  Virt.   30 alpha a    0.07727 Y
     Occ.   18 alpha a   ---  Virt.   41 alpha a    0.09769 X
     Occ.   18 alpha a   ---  Virt.   41 alpha a    0.09765 Y
     Occ.   18 alpha a   ---  Virt.   42 alpha a    0.10672 X
     Occ.   18 alpha a   ---  Virt.   42 alpha a    0.10668 Y
     Occ.   18 alpha a   ---  Virt.   54 alpha a   -0.08340 X
     Occ.   18 alpha a   ---  Virt.   54 alpha a   -0.08338 Y
     Occ.   15 beta  a   ---  Virt.   24 beta  a    0.10147 X
     Occ.   15 beta  a   ---  Virt.   24 beta  a    0.10136 Y
     Occ.   15 beta  a   ---  Virt.   33 beta  a    0.08451 X
     Occ.   15 beta  a   ---  Virt.   33 beta  a    0.08446 Y
     Occ.   16 beta  a   ---  Virt.   17 beta  a    2.89994 X
     Occ.   16 beta  a   ---  Virt.   17 beta  a    2.80976 Y
     Occ.   16 beta  a   ---  Virt.   18 beta  a   -2.78998 X
     Occ.   16 beta  a   ---  Virt.   18 beta  a   -2.70323 Y
     Occ.   16 beta  a   ---  Virt.   20 beta  a    0.31763 X
     Occ.   16 beta  a   ---  Virt.   20 beta  a    0.30846 Y
     Occ.   16 beta  a   ---  Virt.   21 beta  a   -0.13255 X
     Occ.   16 beta  a   ---  Virt.   21 beta  a   -0.12873 Y
     Occ.   16 beta  a   ---  Virt.   29 beta  a   -0.06929 X
     Occ.   16 beta  a   ---  Virt.   29 beta  a   -0.06737 Y
     Occ.   16 beta  a   ---  Virt.   30 beta  a   -0.15695 X
     Occ.   16 beta  a   ---  Virt.   30 beta  a   -0.15261 Y
  ----------------------------------------------------------------------------
  Root   2         a              0.000151030 a.u.                0.0041 eV 
  <S2> =   2.0062
  ----------------------------------------------------------------------------
     Transition Moments    X  0.00000   Y  0.00000   Z  0.00000
     Transition Moments   XX  4.21528  XY -8.55487  XZ  1.39278
     Transition Moments   YY -4.21318  YZ  0.33155  ZZ -0.00211
     Dipole Oscillator Strength                    0.0000000000
     Electric Quadrupole                           0.0000000000
     Magnetic Dipole                               0.0000000000
     Total Oscillator Strength                     0.0000000000

     Occ.   15 alpha a   ---  Virt.   25 alpha a   -0.12076 X
     Occ.   15 alpha a   ---  Virt.   25 alpha a   -0.12072 Y
     Occ.   15 alpha a   ---  Virt.   26 alpha a    0.05217 X
     Occ.   15 alpha a   ---  Virt.   26 alpha a    0.05216 Y
     Occ.   15 alpha a   ---  Virt.   34 alpha a   -0.15565 X
     Occ.   15 alpha a   ---  Virt.   34 alpha a   -0.15561 Y
     Occ.   15 alpha a   ---  Virt.   35 alpha a    0.06735 X
     Occ.   15 alpha a   ---  Virt.   35 alpha a    0.06733 Y
     Occ.   15 alpha a   ---  Virt.   58 alpha a   -0.05566 X
     Occ.   15 alpha a   ---  Virt.   58 alpha a   -0.05565 Y
     Occ.   16 alpha a   ---  Virt.   40 alpha a   -0.08778 X
     Occ.   16 alpha a   ---  Virt.   40 alpha a   -0.08775 Y
     Occ.   16 alpha a   ---  Virt.   52 alpha a   -0.06490 X
     Occ.   16 alpha a   ---  Virt.   52 alpha a   -0.06488 Y
     Occ.   17 alpha a   ---  Virt.   22 alpha a   -0.07301 X
     Occ.   17 alpha a   ---  Virt.   22 alpha a   -0.07294 Y
     Occ.   17 alpha a   ---  Virt.   31 alpha a    0.07757 X
     Occ.   17 alpha a   ---  Virt.   31 alpha a    0.07752 Y
     Occ.   17 alpha a   ---  Virt.   39 alpha a   -0.08778 X
     Occ.   17 alpha a   ---  Virt.   39 alpha a   -0.08775 Y
     Occ.   17 alpha a   ---  Virt.   43 alpha a   -0.06023 X
     Occ.   17 alpha a   ---  Virt.   43 alpha a   -0.06021 Y
     Occ.   17 alpha a   ---  Virt.   51 alpha a    0.06490 X
     Occ.   17 alpha a   ---  Virt.   51 alpha a    0.06488 Y
     Occ.   18 alpha a   ---  Virt.   20 alpha a   -0.07847 X
     Occ.   18 alpha a   ---  Virt.   20 alpha a   -0.07839 Y
     Occ.   18 alpha a   ---  Virt.   29 alpha a    0.07733 X
     Occ.   18 alpha a   ---  Virt.   29 alpha a    0.07727 Y
     Occ.   18 alpha a   ---  Virt.   41 alpha a   -0.10672 X
     Occ.   18 alpha a   ---  Virt.   41 alpha a   -0.10668 Y
     Occ.   18 alpha a   ---  Virt.   42 alpha a    0.09769 X
     Occ.   18 alpha a   ---  Virt.   42 alpha a    0.09765 Y
     Occ.   18 alpha a   ---  Virt.   53 alpha a   -0.08340 X
     Occ.   18 alpha a   ---  Virt.   53 alpha a   -0.08338 Y
     Occ.   15 beta  a   ---  Virt.   23 beta  a    0.10147 X
     Occ.   15 beta  a   ---  Virt.   23 beta  a    0.10135 Y
     Occ.   15 beta  a   ---  Virt.   32 beta  a    0.08450 X
     Occ.   15 beta  a   ---  Virt.   32 beta  a    0.08445 Y
     Occ.   16 beta  a   ---  Virt.   17 beta  a    2.78998 X
     Occ.   16 beta  a   ---  Virt.   17 beta  a    2.70322 Y
     Occ.   16 beta  a   ---  Virt.   18 beta  a    2.89993 X
     Occ.   16 beta  a   ---  Virt.   18 beta  a    2.80976 Y
     Occ.   16 beta  a   ---  Virt.   20 beta  a    0.13255 X
     Occ.   16 beta  a   ---  Virt.   20 beta  a    0.12873 Y
     Occ.   16 beta  a   ---  Virt.   21 beta  a    0.31763 X
     Occ.   16 beta  a   ---  Virt.   21 beta  a    0.30847 Y
     Occ.   16 beta  a   ---  Virt.   29 beta  a   -0.15695 X
     Occ.   16 beta  a   ---  Virt.   29 beta  a   -0.15260 Y
     Occ.   16 beta  a   ---  Virt.   30 beta  a    0.06929 X
     Occ.   16 beta  a   ---  Virt.   30 beta  a    0.06737 Y
  ----------------------------------------------------------------------------
  Root   3         a              0.220281465 a.u.                5.9942 eV 
  <S2> =   3.4765
  ----------------------------------------------------------------------------
     Transition Moments    X  0.11701   Y -0.50218   Z  0.07741
     Transition Moments   XX  0.00000  XY -0.00000  XZ  0.00000
     Transition Moments   YY  0.00000  YZ -0.00000  ZZ  0.00000
     Dipole Oscillator Strength                    0.0399252551
     Electric Quadrupole                           0.0000000000
     Magnetic Dipole                               0.0000000000
     Total Oscillator Strength                     0.0399252551

     Occ.   18 alpha a   ---  Virt.   19 alpha a   -0.23536 X
     Occ.   18 alpha a   ---  Virt.   28 alpha a    0.07513 X
     Occ.   16 beta  a   ---  Virt.   19 beta  a    0.94916 X
     Occ.   16 beta  a   ---  Virt.   25 beta  a    0.05030 X
     Occ.   16 beta  a   ---  Virt.   28 beta  a   -0.18318 X
  ----------------------------------------------------------------------------
  Root   4         a              0.239186169 a.u.                6.5086 eV 
  <S2> =   2.5284
  ----------------------------------------------------------------------------
     Transition Moments    X -0.17996   Y  0.77236   Z -0.11906
     Transition Moments   XX -0.00000  XY  0.00000  XZ -0.00000
     Transition Moments   YY -0.00000  YZ  0.00000  ZZ -0.00000
     Dipole Oscillator Strength                    0.1025467015
     Electric Quadrupole                           0.0000000000
     Magnetic Dipole                               0.0000000000
     Total Oscillator Strength                     0.1025467015

     Occ.   18 alpha a   ---  Virt.   19 alpha a   -0.95052 X
     Occ.   18 alpha a   ---  Virt.   28 alpha a    0.17656 X
     Occ.   16 beta  a   ---  Virt.   19 beta  a   -0.24709 X
  ----------------------------------------------------------------------------
  Root   5         a              0.263053662 a.u.                7.1581 eV 
  <S2> =   3.1068
  ----------------------------------------------------------------------------
     Transition Moments    X -0.00000   Y  0.00000   Z -0.00000
     Transition Moments   XX  0.14915  XY -0.27226  XZ  0.24674
     Transition Moments   YY -0.41035  YZ -0.81561  ZZ  0.26120
     Dipole Oscillator Strength                    0.0000000000
     Electric Quadrupole                           0.0000000901
     Magnetic Dipole                               0.0000000000
     Total Oscillator Strength                     0.0000000901

     Occ.   16 beta  a   ---  Virt.   17 beta  a    0.08212 X
     Occ.   16 beta  a   ---  Virt.   20 beta  a   -0.98303 X
     Occ.   16 beta  a   ---  Virt.   29 beta  a    0.10856 X
     Occ.   16 beta  a   ---  Virt.   30 beta  a    0.10311 X

              Target root =      1
          Target symmetry = none
      Ground state energy =  -2401.200929183189
        Excitation energy =      0.000151029797
     Excited state energy =  -2401.200778153392

  stored tddft:energy   -2401.2007781533916     

 Task  times  cpu:       76.5s     wall:       88.6s


                                NWChem Input Module
                                -------------------


 Summary of allocated global arrays
-----------------------------------
  No active global arrays


MA_summarize_allocated_blocks: starting scan ...
heap block 'gridpts', handle 97, address 0x13eb21a8:
	type of elements:		double precision
	number of elements:		1048456624
	address of client space:	0x13eb2200
	index for client space:		13614999
	total number of bytes:		8387653088
MA_summarize_allocated_blocks: scan completed: 1 heap block, 0 stack blocks
MA usage statistics:

	allocation statistics:
					      heap	     stack
					      ----	     -----
	current number of blocks	         1	         0
	maximum number of blocks	        18	        54
	current total bytes		8387653088	         0
	maximum total bytes		8388447248	 109417528
	maximum total K-bytes		   8388448	    109418
	maximum total M-bytes		      8389	       110


                                     CITATION
                                     --------
                Please cite the following reference when publishing
                           results obtained with NWChem:

          E. Apra, E. J. Bylaska, W. A. de Jong, N. Govind, K. Kowalski,
       T. P. Straatsma, M. Valiev, H. J. J. van Dam, Y. Alexeev, J. Anchell,
       V. Anisimov, F. W. Aquino, R. Atta-Fynn, J. Autschbach, N. P. Bauman,
     J. C. Becca, D. E. Bernholdt, K. Bhaskaran-Nair, S. Bogatko, P. Borowski,
         J. Boschen, J. Brabec, A. Bruner, E. Cauet, Y. Chen, G. N. Chuev,
      C. J. Cramer, J. Daily, M. J. O. Deegan, T. H. Dunning Jr., M. Dupuis,
   K. G. Dyall, G. I. Fann, S. A. Fischer, A. Fonari, H. Fruchtl, L. Gagliardi,
      J. Garza, N. Gawande, S. Ghosh, K. Glaesemann, A. W. Gotz, J. Hammond,
       V. Helms, E. D. Hermes, K. Hirao, S. Hirata, M. Jacquelin, L. Jensen,
   B. G. Johnson, H. Jonsson, R. A. Kendall, M. Klemm, R. Kobayashi, V. Konkov,
      S. Krishnamoorthy, M. Krishnan, Z. Lin, R. D. Lins, R. J. Littlefield,
      A. J. Logsdail, K. Lopata, W. Ma, A. V. Marenich, J. Martin del Campo,
   D. Mejia-Rodriguez, J. E. Moore, J. M. Mullin, T. Nakajima, D. R. Nascimento,
    J. A. Nichols, P. J. Nichols, J. Nieplocha, A. Otero-de-la-Roza, B. Palmer,
    A. Panyala, T. Pirojsirikul, B. Peng, R. Peverati, J. Pittner, L. Pollack,
   R. M. Richard, P. Sadayappan, G. C. Schatz, W. A. Shelton, D. W. Silverstein,
   D. M. A. Smith, T. A. Soares, D. Song, M. Swart, H. L. Taylor, G. S. Thomas,
            V. Tipparaju, D. G. Truhlar, K. Tsemekhman, T. Van Voorhis,
      A. Vazquez-Mayagoitia, P. Verma, O. Villa, A. Vishnu, K. D. Vogiatzis,
        D. Wang, J. H. Weare, M. J. Williamson, T. L. Windus, K. Wolinski,
        A. T. Wong, Q. Wu, C. Yang, Q. Yu, M. Zacharias, Z. Zhang, Y. Zhao,
                                and R. J. Harrison
                        "NWChem: Past, present, and future
                         J. Chem. Phys. 152, 184102 (2020)
                               doi:10.1063/5.0004997

                                      AUTHORS
                                      -------
  E. Apra, E. J. Bylaska, N. Govind, K. Kowalski, M. Valiev, D. Mejia-Rodriguez,
       A. Kunitsa, N. P. Bauman, A. Panyala, W. A. de Jong, T. P. Straatsma,
   H. J. J. van Dam, D. Wang, T. L. Windus, J. Hammond, J. Autschbach, A. Woods,
    K. Bhaskaran-Nair, J. Brabec, K. Lopata, S. A. Fischer, S. Krishnamoorthy,
     M. Jacquelin, W. Ma, M. Klemm, O. Villa, Y. Chen, V. Anisimov, F. Aquino,
     S. Hirata, M. T. Hackler, E. Hermes, L. Jensen, J. E. Moore, J. C. Becca,
      V. Konjkov, T. Risthaus, M. Malagoli, A. Marenich, A. Otero-de-la-Roza,
        J. Mullin, P. Nichols, R. Peverati, J. Pittner, Y. Zhao, P.-D. Fan,
        A. Fonari, M. J. Williamson, R. J. Harrison, J. R. Rehr, M. Dupuis,
     D. Silverstein, D. M. A. Smith, J. Nieplocha, V. Tipparaju, M. Krishnan,
     B. E. Van Kuiken, A. Vazquez-Mayagoitia, M. Swart, Q. Wu, T. Van Voorhis,
     A. A. Auer, M. Nooijen, L. D. Crosby, E. Brown, G. Cisneros, G. I. Fann,
   H. Fruchtl, J. Garza, K. Hirao, R. A. Kendall, J. A. Nichols, K. Tsemekhman,
    K. Wolinski, J. Anchell, D. E. Bernholdt, P. Borowski, T. Clark, D. Clerc,
   H. Dachsel, M. J. O. Deegan, K. Dyall, D. Elwood, E. Glendening, M. Gutowski,
   A. C. Hess, J. Jaffe, B. G. Johnson, J. Ju, R. Kobayashi, R. Kutteh, Z. Lin,
   R. Littlefield, X. Long, B. Meng, T. Nakajima, S. Niu, L. Pollack, M. Rosing,
   K. Glaesemann, G. Sandrone, M. Stave, H. Taylor, G. Thomas, J. H. van Lenthe,
                               A. T. Wong, Z. Zhang.

 Total times  cpu:       76.5s     wall:       89.0s
