 argument  1 = /home/aditisingh4812/nw_chem/nwchem-run/nwchem-run/tddft/open/open_atom/geom-MOL/si.nw
                                         
                                         


             Northwest Computational Chemistry Package (NWChem) 7.2.3
             --------------------------------------------------------


                    Environmental Molecular Sciences Laboratory
                       Pacific Northwest National Laboratory
                                Richland, WA 99352

                              Copyright (c) 1994-2022
                       Pacific Northwest National Laboratory
                            Battelle Memorial Institute

             NWChem is an open-source computational chemistry package
                        distributed under the terms of the
                      Educational Community License (ECL) 2.0
             A copy of the license is included with this distribution
                              in the LICENSE.TXT file

                                  ACKNOWLEDGMENT
                                  --------------

            This software and its documentation were developed at the
            EMSL at Pacific Northwest National Laboratory, a multiprogram
            national laboratory, operated for the U.S. Department of Energy
            by Battelle under Contract Number DE-AC05-76RL01830. Support
            for this work was provided by the Department of Energy Office
            of Biological and Environmental Research, Office of Basic
            Energy Sciences, and the Office of Advanced Scientific Computing.


           Job information
           ---------------

    hostname        = p17
    program         = /home/aditisingh4812/nw_chem/nwchem-7.2.3-release.revision-d690e065-srconly.2024-08-27/nwchem-7.2.3/bin/LINUX64/nwchem
    date            = Thu May  8 11:56:49 2025

    compiled        = Mon_Apr_07_18:51:54_2025
    source          = /home/aditisingh4812/nw_chem/nwchem-7.2.3-release.revision-d690e065-srconly.2024-08-27/nwchem-7.2.3
    nwchem branch   = 7.2.3
    nwchem revision = d690e065
    ga revision     = 5.8.0
    use scalapack   = F
    input           = /home/aditisingh4812/nw_chem/nwchem-run/nwchem-run/tddft/open/open_atom/geom-MOL/si.nw
    prefix          = si.
    data base       = ./si.db
    status          = startup
    nproc           =        8
    time left       =     -1s



           Memory information
           ------------------

    heap     = 2621439998 doubles =  20000.0 Mbytes
    stack    = 2621439995 doubles =  20000.0 Mbytes
    global   = 6553600000 doubles =  50000.0 Mbytes (distinct from heap & stack)
    total    = ********** doubles =  90000.0 Mbytes
    verify   = yes
    hardfail = no 


           Directory information
           ---------------------

  0 permanent = .
  0 scratch   = .




                                NWChem Input Module
                                -------------------



 Scaling coordinates for geometry "geometry" by  1.889725989
 (inverse scale =  0.529177249)



                             Geometry "geometry" -> ""
                             -------------------------

 Output coordinates in angstroms (scale by  1.889725989 to convert to a.u.)

  No.       Tag          Charge          X              Y              Z
 ---- ---------------- ---------- -------------- -------------- --------------
    1 Si                  14.0000     0.00000000     0.00000000     0.00000000

      Atomic Mass 
      ----------- 

      Si                27.976930


 Effective nuclear repulsion energy (a.u.)       0.0000000000

            Nuclear Dipole moment (a.u.) 
            ----------------------------
        X                 Y               Z
 ---------------- ---------------- ----------------
     0.0000000000     0.0000000000     0.0000000000


            XYZ format geometry
            -------------------
     1
 geometry
 Si                    0.00000000     0.00000000     0.00000000



 Summary of "ao basis" -> "" (cartesian)
 ------------------------------------------------------------------------------
       Tag                 Description            Shells   Functions and Types
 ---------------- ------------------------------  ------  ---------------------
 *                        aug-cc-pVTZ                 on all atoms 


  pbe96 is a nonlocal functional; adding pw91lda local functional. 

                                 NWChem DFT Module
                                 -----------------


                      Basis "ao basis" -> "ao basis" (cartesian)
                      -----
  Si (Silicon)
  ------------
            Exponent  Coefficients 
       -------------- ---------------------------------------------------------
  1 S  2.54900000E+05  0.000063
  1 S  3.81900000E+04  0.000486
  1 S  8.69000000E+03  0.002545
  1 S  2.46200000E+03  0.010587
  1 S  8.04800000E+02  0.036879
  1 S  2.91300000E+02  0.107479
  1 S  1.13600000E+02  0.247936
  1 S  4.67500000E+01  0.390927
  1 S  1.98200000E+01  0.302026
  1 S  7.70800000E+00  0.055924
  1 S  3.34000000E+00 -0.004024
  1 S  1.40200000E+00  0.002580
  1 S  2.07000000E-01  0.000608

  2 S  2.54900000E+05 -0.000017
  2 S  3.81900000E+04 -0.000129
  2 S  8.69000000E+03 -0.000679
  2 S  2.46200000E+03 -0.002841
  2 S  8.04800000E+02 -0.010055
  2 S  2.91300000E+02 -0.030577
  2 S  1.13600000E+02 -0.077726
  2 S  4.67500000E+01 -0.154236
  2 S  1.98200000E+01 -0.180368
  2 S  7.70800000E+00  0.079822
  2 S  3.34000000E+00  0.547441
  2 S  1.40200000E+00  0.480119
  2 S  2.07000000E-01 -0.010700

  3 S  2.54900000E+05  0.000004
  3 S  3.81900000E+04  0.000033
  3 S  8.69000000E+03  0.000174
  3 S  2.46200000E+03  0.000728
  3 S  8.04800000E+02  0.002583
  3 S  2.91300000E+02  0.007864
  3 S  1.13600000E+02  0.020216
  3 S  4.67500000E+01  0.040732
  3 S  1.98200000E+01  0.049936
  3 S  7.70800000E+00 -0.024940
  3 S  3.34000000E+00 -0.190350
  3 S  1.40200000E+00 -0.318350
  3 S  2.07000000E-01  0.681180

  4 S  4.38700000E-01  1.000000

  5 S  7.94400000E-02  1.000000

  6 S  3.30000000E-02  1.000000

  7 P  4.81500000E+02  0.001920
  7 P  1.13900000E+02  0.015355
  7 P  3.62300000E+01  0.071399
  7 P  1.33400000E+01  0.213052
  7 P  5.25200000E+00  0.390354
  7 P  2.12000000E+00  0.393721
  7 P  2.52800000E-01  0.003956

  8 P  4.81500000E+02 -0.000405
  8 P  1.13900000E+02 -0.003359
  8 P  3.62300000E+01 -0.015286
  8 P  1.33400000E+01 -0.048922
  8 P  5.25200000E+00 -0.085501
  8 P  2.12000000E+00 -0.112137
  8 P  2.52800000E-01  0.551919

  9 P  8.56100000E-01  1.000000

 10 P  7.88900000E-02  1.000000

 11 P  2.37000000E-02  1.000000

 12 D  1.59000000E-01  1.000000

 13 D  4.81000000E-01  1.000000

 14 D  5.56000000E-02  1.000000

 15 F  3.36000000E-01  1.000000

 16 F  1.25000000E-01  1.000000



 Summary of "ao basis" -> "ao basis" (cartesian)
 ------------------------------------------------------------------------------
       Tag                 Description            Shells   Functions and Types
 ---------------- ------------------------------  ------  ---------------------
 Si                       aug-cc-pVTZ               16       59   6s5p3d2f




 Summary of "ao basis" -> "ao basis" (cartesian)
 ------------------------------------------------------------------------------
       Tag                 Description            Shells   Functions and Types
 ---------------- ------------------------------  ------  ---------------------
 Si                       aug-cc-pVTZ               16       59   6s5p3d2f




                         Geometry "geometry" -> "geometry"
                         ---------------------------------

 Output coordinates in angstroms (scale by  1.889725989 to convert to a.u.)

  No.       Tag          Charge          X              Y              Z
 ---- ---------------- ---------- -------------- -------------- --------------
    1 Si                  14.0000     0.00000000     0.00000000     0.00000000

      Atomic Mass 
      ----------- 

      Si                27.976930


 Effective nuclear repulsion energy (a.u.)       0.0000000000

            Nuclear Dipole moment (a.u.) 
            ----------------------------
        X                 Y               Z
 ---------------- ---------------- ----------------
     0.0000000000     0.0000000000     0.0000000000


                      Basis "ao basis" -> "ao basis" (cartesian)
                      -----
  Si (Silicon)
  ------------
            Exponent  Coefficients 
       -------------- ---------------------------------------------------------
  1 S  2.54900000E+05  0.505343
  1 S  3.81900000E+04  0.945273
  1 S  8.69000000E+03  1.632445
  1 S  2.46200000E+03  2.636824
  1 S  8.04800000E+02  3.971003
  1 S  2.91300000E+02  5.400545
  1 S  1.13600000E+02  6.147973
  1 S  4.67500000E+01  4.980701
  1 S  1.98200000E+01  2.021765
  1 S  7.70800000E+00  0.184357
  1 S  3.34000000E+00 -0.007085
  1 S  1.40200000E+00  0.002369
  1 S  2.07000000E-01  0.000133

  2 S  2.54900000E+05 -0.138957
  2 S  3.81900000E+04 -0.260090
  2 S  8.69000000E+03 -0.449836
  2 S  2.46200000E+03 -0.731127
  2 S  8.04800000E+02 -1.118618
  2 S  2.91300000E+02 -1.587396
  2 S  1.13600000E+02 -1.991256
  2 S  4.67500000E+01 -2.030258
  2 S  1.98200000E+01 -1.247431
  2 S  7.70800000E+00  0.271867
  2 S  3.34000000E+00  0.995810
  2 S  1.40200000E+00  0.455448
  2 S  2.07000000E-01 -0.002418

  3 S  2.54900000E+05  0.055864
  3 S  3.81900000E+04  0.104485
  3 S  8.69000000E+03  0.180941
  3 S  2.46200000E+03  0.293784
  3 S  8.04800000E+02  0.450952
  3 S  2.91300000E+02  0.640557
  3 S  1.13600000E+02  0.812648
  3 S  4.67500000E+01  0.841311
  3 S  1.98200000E+01  0.541906
  3 S  7.70800000E+00 -0.133285
  3 S  3.34000000E+00 -0.543309
  3 S  1.40200000E+00 -0.473860
  3 S  2.07000000E-01  0.241504

  4 S  4.38700000E-01  0.384181

  5 S  7.94400000E-02  0.106645

  6 S  3.30000000E-02  0.055182

  7 P  4.81500000E+02  6.701335
  7 P  1.13900000E+02  8.839406
  7 P  3.62300000E+01  9.818408
  7 P  1.33400000E+01  8.403174
  7 P  5.25200000E+00  4.801506
  7 P  2.12000000E+00  1.558193
  7 P  2.52800000E-01  0.001097

  8 P  4.81500000E+02 -2.356448
  8 P  1.13900000E+02 -3.222413
  8 P  3.62300000E+01 -3.503088
  8 P  1.33400000E+01 -3.215651
  8 P  5.25200000E+00 -1.752660
  8 P  2.12000000E+00 -0.739589
  8 P  2.52800000E-01  0.255075

  9 P  8.56100000E-01  1.173804

 10 P  7.88900000E-02  0.059596

 11 P  2.37000000E-02  0.013255

 12 D  1.59000000E-01  0.065895

 13 D  4.81000000E-01  0.457260

 14 D  5.56000000E-02  0.010478

 15 F  3.36000000E-01  0.126537

 16 F  1.25000000E-01  0.013677



    Basis function labels
    ---------------------
       No.  Atm El Type
       ---  --- -- ----
        1    1 Si s          
        2    1 Si s          
        3    1 Si s          
        4    1 Si s          
        5    1 Si s          
        6    1 Si s          
        7    1 Si px         
        8    1 Si py         
        9    1 Si pz         
       10    1 Si px         
       11    1 Si py         
       12    1 Si pz         
       13    1 Si px         
       14    1 Si py         
       15    1 Si pz         
       16    1 Si px         
       17    1 Si py         
       18    1 Si pz         
       19    1 Si px         
       20    1 Si py         
       21    1 Si pz         
       22    1 Si dxx        
       23    1 Si dxy        
       24    1 Si dxz        
       25    1 Si dyy        
       26    1 Si dyz        
       27    1 Si dzz        
       28    1 Si dxx        
       29    1 Si dxy        
       30    1 Si dxz        
       31    1 Si dyy        
       32    1 Si dyz        
       33    1 Si dzz        
       34    1 Si dxx        
       35    1 Si dxy        
       36    1 Si dxz        
       37    1 Si dyy        
       38    1 Si dyz        
       39    1 Si dzz        
       40    1 Si fxxx       
       41    1 Si fxxy       
       42    1 Si fxxz       
       43    1 Si fxyy       
       44    1 Si fxyz       
       45    1 Si fxzz       
       46    1 Si fyyy       
       47    1 Si fyyz       
       48    1 Si fyzz       
       49    1 Si fzzz       
       50    1 Si fxxx       
       51    1 Si fxxy       
       52    1 Si fxxz       
       53    1 Si fxyy       
       54    1 Si fxyz       
       55    1 Si fxzz       
       56    1 Si fyyy       
       57    1 Si fyyz       
       58    1 Si fyzz       
       59    1 Si fzzz       
  int_init: cando_txs set to always be  F

 Schwarz integral screening summary 
 ---------------------------------- 

        No. of atom pairs =       1
       No. of shell pairs =     136

 Atomic screening 

   value      no.     value      no.     value      no.     value      no.   
  -------- ------    -------- ------    -------- ------    -------- ------   
  0.00D+00      0    1.00D-13      0    1.00D-12      0    1.00D-11      0
  1.00D-10      0    1.00D-09      0    1.00D-08      0    1.00D-07      0
  1.00D-06      0    1.00D-05      0    1.00D-04      0    1.00D-03      0
  1.00D-02      0    1.00D-01      0    1.00D+00      1    1.00D+01      0


 Shell screening 

   value      no.     value      no.     value      no.     value      no.   
  -------- ------    -------- ------    -------- ------    -------- ------   
  0.00D+00      0    1.00D-13      0    1.00D-12      0    1.00D-11      0
  1.00D-10      0    1.00D-09      0    1.00D-08      0    1.00D-07      0
  1.00D-06      0    1.00D-05      0    1.00D-04      2    1.00D-03      4
  1.00D-02      7    1.00D-01     56    1.00D+00     67    1.00D+01      0


  Caching 1-el integrals 
  atom                     1  - neighbor  & S                     1   10.000000000000000       exp AB    2.3700000000000016E-002   2.3700000000000016E-002
 zmins =     0.023700000    0.023700000 lprod =   2 range =        21.45 acc   0.10D-06
 sh     0.000000000
  Center:                     1  Radial Pts. & Wghts. 
    1        0.000002947           7.6765641E-17
    2        0.000023574           1.9652149E-14
    3        0.000079564           5.0367311E-13
    4        0.000188597           5.0312456E-12
    5        0.000368360           2.9990480E-11
    6        0.000636542           1.2896588E-10
    7        0.001010838           4.4269745E-10
    8        0.001508956           1.2886044E-09
    9        0.002148617           3.3070341E-09
   10        0.002947558           7.6846148E-09
   11        0.003923540           1.6478378E-08
   12        0.005094353           3.3067696E-08
   13        0.006477819           6.2764583E-08
   14        0.008091801           1.1361655E-07
   15        0.009954211           1.9744006E-07
   16        0.012083013           3.3112664E-07
   17        0.014496238           5.3826809E-07
   18        0.017211985           8.5115185E-07
   19        0.020248439           1.3131826E-06
   20        0.023623873           1.9817914E-06
   21        0.027356666           2.9319002E-06
   22        0.031465307           4.2600155E-06
   23        0.035968416           6.0890318E-06
   24        0.040884748           8.5738346E-06
   25        0.046233212           1.1907801E-05
   26        0.052032886           1.6330303E-05
   27        0.058303027           2.2135336E-05
   28        0.065063092           2.9681400E-05
   29        0.072332752           3.9402777E-05
   30        0.080131913           5.1822368E-05
   31        0.088480730           6.7566256E-05
   32        0.097399630           8.7380205E-05
   33        0.106909334           1.1214830E-04
   34        0.117030873           1.4291397E-04
   35        0.127785619           1.8090365E-04
   36        0.139195302           2.2755343E-04
   37        0.151282042           2.8453895E-04
   38        0.164068371           3.5380894E-04
   39        0.177577264           4.3762289E-04
   40        0.191832168           5.3859316E-04
   41        0.206857036           6.5973221E-04
   42        0.222676357           8.0450544E-04
   43        0.239315196           9.7689032E-04
   44        0.256799226           1.1814425E-03
   45        0.275154774           1.4233700E-03
   46        0.294408860           1.7086158E-03
   47        0.314589241           2.0439504E-03
   48        0.335724461           2.4370760E-03
   49        0.357843901           2.8967421E-03
   50        0.380977830           3.4328756E-03
   51        0.405157467           4.0567266E-03
   52        0.430415040           4.7810318E-03
   53        0.456783851           5.6201972E-03
   54        0.484298344           6.5905044E-03
   55        0.512994185           7.7103408E-03
   56        0.542908335           9.0004599E-03
   57        0.574079141           1.0484273E-02
   58        0.606546424           1.2188179E-02
   59        0.640351581           1.4141935E-02
   60        0.675537686           1.6379074E-02
   61        0.712149611           1.8937379E-02
   62        0.750234143           2.1859419E-02
   63        0.789840120           2.5193155E-02
   64        0.831018575           2.8992623E-02
   65        0.873822888           3.3318724E-02
   66        0.918308961           3.8240101E-02
   67        0.964535394           4.3834160E-02
   68        1.012563689           5.0188219E-02
   69        1.062458467           5.7400828E-02
   70        1.114287699           6.5583279E-02
   71        1.168122972           7.4861338E-02
   72        1.224039767           8.5377235E-02
   73        1.282117770           9.7291957E-02
   74        1.342441213           1.1078789E-01
   75        1.405099251           1.2607187E-01
   76        1.470186370           1.4337874E-01
   77        1.537802849           1.6297546E-01
   78        1.608055263           1.8516589E-01
   79        1.681057041           2.1029641E-01
   80        1.756929097           2.3876244E-01
   81        1.835800519           2.7101618E-01
   82        1.917809345           3.0757563E-01
   83        2.003103438           3.4903534E-01
   84        2.091841461           3.9607906E-01
   85        2.184193977           4.4949488E-01
   86        2.280344691           5.1019323E-01
   87        2.380491866           5.7922850E-01
   88        2.484849917           6.5782504E-01
   89        2.593651244           7.4740857E-01
   90        2.707148322           8.4964435E-01
   91        2.825616109           9.6648369E-01
   92        2.949354815           1.1002210E+00
   93        3.078693123           1.2535642E+00
   94        3.213991927           1.4297219E+00
   95        3.355648711           1.6325118E+00
   96        3.504102692           1.8664980E+00
   97        3.659840900           2.1371628E+00
   98        3.823405408           2.4511273E+00
   99        3.995401975           2.8164330E+00
  100        4.176510461           3.2429081E+00
  101        4.367497453           3.7426443E+00
  102        4.569231700           4.3306286E+00
  103        4.782703149           5.0255842E+00
  104        5.009046617           5.8511076E+00
  105        5.249571544           6.8372235E+00
  106        5.505799802           8.0225434E+00
  107        5.779514317           9.4573066E+00
  108        6.072822450           1.1207743E+01
  109        6.388239855           1.3362453E+01
  110        6.728803325           1.6041939E+01
  111        7.098225518           1.9413200E+01
  112        7.501111744           2.3712720E+01
  113        7.943271312           2.9283838E+01
  114        8.432177676           3.6639811E+01
  115        8.977671866           4.6575018E+01
  116        9.593081959           6.0371565E+01
  117       10.297094029           8.0208479E+01
  118       11.117075092           1.1003924E+02
  119       12.095453194           1.5767681E+02
  120       13.303307597           2.4047872E+02
  121       14.873887555           4.0422022E+02
  122       17.106342650           8.0871902E+02
  123       20.955235413           2.4472169E+03
     irreducible set of Lebedev Angular points ;
  0.009523809523810  1.000000000000000  0.000000000000000  0.000000000000000
  0.032142857142857  0.577350269189626  0.577350269189626  0.577350269189626
  0.028571428571429  0.459700843380983  0.000000000000000  0.888073833977115
   total no. of   reducible points:  38; test:  1.00000000
  0.012698412698413  1.000000000000000  0.000000000000000  0.000000000000000
  0.022574955908289  0.707106781186547  0.707106781186547  0.000000000000000
  0.021093750000000  0.577350269189626  0.577350269189626  0.577350269189626
  0.020173335537919  0.301511344577764  0.301511344577764  0.904534033733291
   total no. of   reducible points:  50; test:  1.00000000
  0.000513067179734  1.000000000000000  0.000000000000000  0.000000000000000
  0.016604069565742  0.707106781186547  0.707106781186547  0.000000000000000
 -0.029586038961039  0.577350269189626  0.577350269189626  0.577350269189626
  0.026576207082159  0.480384461415261  0.480384461415261  0.733799385705343
  0.016522170993716  0.320772648980776  0.000000000000000  0.947156221362588
   total no. of   reducible points:  74; test:  1.00000000
  0.011544011544012  1.000000000000000  0.000000000000000  0.000000000000000
  0.011943909085856  0.577350269189626  0.577350269189626  0.577350269189626
  0.011110555710603  0.369602846454150  0.369602846454150  0.852518311701268
  0.011876501294537  0.694354006602666  0.694354006602666  0.189063552885395
  0.011812303746904  0.374243039090341  0.000000000000000  0.927330657151172
   total no. of   reducible points:  86; test:  1.00000000
  0.003828270494937  1.000000000000000  0.000000000000000  0.000000000000000
  0.009793737512488  0.577350269189626  0.577350269189626  0.577350269189626
  0.008211737283191  0.185115635344736  0.185115635344736  0.965124035086594
  0.009942814891178  0.690421048382292  0.690421048382292  0.215957291845848
  0.009595471336071  0.395689473055942  0.395689473055942  0.828769981252592
  0.009694996361663  0.478369028812150  0.000000000000000  0.878158910604066
   total no. of   reducible points: 110; test:  1.00000000
  0.000599631368862  1.000000000000000  0.000000000000000  0.000000000000000
  0.007372999718621  0.707106781186547  0.707106781186547  0.000000000000000
  0.007210515360144  0.577350269189626  0.577350269189626  0.577350269189626
  0.007116355493118  0.676441040011426  0.676441040011426  0.291298882209527
  0.006753829486314  0.417496122796545  0.417496122796545  0.807089818359583
  0.007574394159054  0.157467667203908  0.157467667203908  0.974888643677173
  0.006991087353303  0.140355381171318  0.449332832326956  0.882270011260323
   total no. of   reducible points: 146; test:  1.00000000
  0.005544842902037  1.000000000000000  0.000000000000000  0.000000000000000
  0.006071332770671  0.707106781186547  0.707106781186547  0.000000000000000
  0.006383674773515  0.577350269189626  0.577350269189626  0.577350269189626
  0.005183387587748  0.255125262111413  0.255125262111413  0.932642590312691
  0.006317929009814  0.674360146036277  0.674360146036277  0.300793595137701
  0.006201670006589  0.431891069671941  0.431891069671941  0.791795559393492
  0.005477143385137  0.261393136033599  0.000000000000000  0.965232421976448
  0.005968383987681  0.499045316179604  0.144663074432512  0.854415804684659
   total no. of   reducible points: 170; test:  1.00000000
  0.001782340447245  1.000000000000000  0.000000000000000  0.000000000000000
  0.005716905949977  0.707106781186547  0.707106781186547  0.000000000000000
  0.005573383178849  0.577350269189626  0.577350269189626  0.577350269189626
  0.005608704082588  0.671297344269523  0.671297344269523  0.314196994182586
  0.005158237711805  0.289246562757544  0.289246562757544  0.912509096867474
  0.005518771467274  0.444693317871744  0.444693317871744  0.777493219314767
  0.004106777028169  0.129933544765007  0.129933544765007  0.982972302707253
  0.005051846064615  0.345770219761128  0.000000000000000  0.938319218137592
  0.005530248916233  0.159041710538353  0.836036015482459  0.525118572443642
   total no. of   reducible points: 194; test:  1.00000000
 -0.055226399197273  1.000000000000000  0.000000000000000  0.000000000000000
  0.004450274607445  0.577350269189626  0.577350269189626  0.577350269189626
  0.004496841067921  0.449204468739761  0.449204468739761  0.772289253148364
  0.005049153450479  0.252041949021020  0.252041949021020  0.934317778845812
  0.003976408018052  0.698190665844724  0.698190665844724  0.158302205463478
  0.004401400650381  0.658740524346096  0.658740524346096  0.363485684956727
  0.017245443505444  0.040385440500977  0.040385440500977  0.998367683967727
  0.004231083095357  0.582384230971558  0.000000000000000  0.812913653173365
  0.005198069864064  0.354587739051869  0.000000000000000  0.935022745880593
  0.004695720972569  0.227218180899819  0.486466153588665  0.843636521068894
   total no. of   reducible points: 230; test:  1.00000000
 -0.001313769127327  1.000000000000000  0.000000000000000  0.000000000000000
 -0.002522728704859  0.707106781186547  0.707106781186547  0.000000000000000
  0.004186853881701  0.577350269189626  0.577350269189626  0.577350269189626
  0.005315167977811  0.703937339158548  0.703937339158548  0.094575076403713
  0.004047142377086  0.101252624857241  0.101252624857241  0.989694807462905
  0.004112482394407  0.464744872642054  0.464744872642054  0.753673939250816
  0.003595584899759  0.327742065497163  0.327742065497163  0.886098344997499
  0.004256131351428  0.662033866369997  0.662033866369997  0.351315128564633
  0.004229582700647  0.850650808352040  0.000000000000000  0.525731112119134
  0.004080914225781  0.323348454269290  0.115311201100970  0.939227929749916
  0.004071467593831  0.231479015871260  0.524493924092236  0.819343388819120
   total no. of   reducible points: 266; test:  1.00000000
  0.000854591172513  1.000000000000000  0.000000000000000  0.000000000000000
  0.003599119285026  0.577350269189626  0.577350269189626  0.577350269189626
  0.003449788424306  0.351564034557011  0.351564034557011  0.867643624544083
  0.003604822601420  0.656632941021961  0.656632941021961  0.371034178384821
  0.003576729661743  0.472905413258100  0.472905413258100  0.743452042987556
  0.002352101413689  0.096183085226148  0.096183085226148  0.990705621379408
  0.003108953122414  0.221964523629418  0.221964523629418  0.949454317226443
  0.003650045807677  0.701176641608955  0.701176641608955  0.129238672710514
  0.002982344963172  0.264415288706066  0.000000000000000  0.964408914879206
  0.003600820932216  0.571895589187896  0.000000000000000  0.820326419827759
  0.003571540554273  0.251003475177047  0.800072749407395  0.544867737258077
  0.003392312205006  0.123354853258333  0.412772408316853  0.902442529533000
   total no. of   reducible points: 302; test:  1.00000000
  0.003006796749454  1.000000000000000  0.000000000000000  0.000000000000000
  0.003050627745651  0.577350269189626  0.577350269189626  0.577350269189626
  0.001621104600289  0.706896546391232  0.706896546391232  0.024383301669356
  0.003005701484902  0.479468262571203  0.479468262571203  0.734996850587746
  0.002990992529654  0.192753315487802  0.192753315487802  0.962129055136014
  0.002982170644108  0.693035796132712  0.693035796132712  0.198501311223365
  0.002721564237311  0.360830211552009  0.360830211552009  0.860001812127547
  0.003033513795811  0.649848616149617  0.649848616149617  0.394199888605839
  0.003007949555219  0.193294501323034  0.000000000000000  0.981140782843257
  0.002881964603055  0.380049491989930  0.000000000000000  0.924966152698679
  0.002958357626536  0.289955882549957  0.793453785658232  0.535123047718276
  0.003036020026407  0.096841214551040  0.828080150668686  0.552182074349399
  0.002832187403926  0.183343464704166  0.907465826530513  0.378009189874487
   total no. of   reducible points: 350; test:  1.00000000
  0.000526589796822  1.000000000000000  0.000000000000000  0.000000000000000
  0.002548219972003  0.707106781186547  0.707106781186547  0.000000000000000
  0.002512317418927  0.577350269189626  0.577350269189626  0.577350269189626
  0.002530403801186  0.690934630750911  0.690934630750911  0.212646824707552
  0.002014279020919  0.177483605460916  0.177483605460916  0.967987158791473
  0.002501725168403  0.491434263778475  0.491434263778475  0.719016501040843
  0.002513267174598  0.645666470742426  0.645666470742426  0.407712664897770
  0.002302694782227  0.286128901030764  0.286128901030764  0.914472801120872
  0.001462495621595  0.075680843671780  0.075680843671780  0.994255912631278
  0.002445373437313  0.392725976336800  0.392725976336800  0.831584400419232
  0.002417442375639  0.881813287779429  0.000000000000000  0.471598691151316
  0.001910951282180  0.977642811118265  0.000000000000000  0.210272522857307
  0.002416930044325  0.205482369640304  0.868946032287241  0.450233038258263
  0.002512236854563  0.590515704892527  0.799927854385729  0.106801826075805
  0.002496644054553  0.555015236107681  0.771746262691590  0.310428403516654
  0.002236607760438  0.937180985855372  0.334436314534346  0.099217696364292
   total no. of   reducible points: 434; test:  1.00000000
  0.000309512129531  1.000000000000000  0.000000000000000  0.000000000000000
  0.001852379698597  0.577350269189626  0.577350269189626  0.577350269189626
  0.001871790639278  0.704095493822747  0.704095493822747  0.092190407076898
  0.001858812585438  0.680774406645524  0.680774406645524  0.270356088359165
  0.001852028828296  0.637254693925875  0.637254693925875  0.433373868777154
  0.001846715956151  0.504441970780036  0.504441970780036  0.700768575373573
  0.001818471778163  0.421576178401097  0.421576178401097  0.802836877335274
  0.001749564657281  0.331792073647212  0.331792073647212  0.883078727934133
  0.001617210647254  0.238473670142189  0.238473670142189  0.941414158220403
  0.001384737234852  0.145903644915776  0.145903644915776  0.978480583762694
  0.000976433116505  0.060950341155072  0.060950341155072  0.996278129754016
  0.001857161196774  0.611684344200988  0.000000000000000  0.791101929626902
  0.001705153996396  0.396475534819986  0.000000000000000  0.918045287711454
  0.001300321685886  0.172478200990772  0.000000000000000  0.985013335028002
  0.001842866472905  0.561026380862206  0.351828092773352  0.749310611904116
  0.001802658934377  0.474239284255198  0.263471665593795  0.840047488359050
  0.001849830560444  0.598412649788538  0.181664084036021  0.780320742479920
  0.001713904507107  0.379103540769556  0.172079522565688  0.909213475092374
  0.001555213603397  0.277867319058624  0.082130215819325  0.957102074310073
  0.001802239128009  0.503356427107512  0.089992058420749  0.859379855890721
   total no. of   reducible points: 590; test:  1.00000000
  0.000219294208818  1.000000000000000  0.000000000000000  0.000000000000000
  0.001436433617319  0.707106781186547  0.707106781186547  0.000000000000000
  0.001421940344336  0.577350269189626  0.577350269189626  0.577350269189626
  0.000679812351105  0.050872044105024  0.050872044105024  0.997408677652823
  0.000991318423529  0.122819879017883  0.122819879017883  0.984799753572301
  0.001180207833239  0.202689081440879  0.202689081440879  0.958036675983391
  0.001296599602081  0.284774515646429  0.284774515646429  0.915317950483155
  0.001365871427428  0.365671907897803  0.365671907897803  0.855901928697887
  0.001402988604775  0.442826488671347  0.442826488671347  0.779621319527635
  0.001418645563596  0.514061962724974  0.514061962724974  0.686644447264154
  0.001421376741852  0.630640121916680  0.630640121916680  0.452311920313658
  0.001423996475491  0.671688333202261  0.671688333202261  0.312521305001653
  0.001431554042179  0.697979268533688  0.697979268533688  0.160155803498829
  0.000925440149987  0.144686567419531  0.000000000000000  0.989477537495599
  0.001250239995054  0.339026347541122  0.000000000000000  0.940776878793759
  0.001394365843329  0.533580465126351  0.000000000000000  0.845749305193653
  0.001127089094672  0.069440243933494  0.235518789424233  0.969385863498432
  0.001345753760911  0.226900410952946  0.410218247404573  0.883310360522113
  0.001424957283317  0.080255746077753  0.621430241748161  0.779348105702661
  0.001261523341238  0.146799952789657  0.324528434571739  0.934414827052402
  0.001392547106053  0.157150776982473  0.522448218969663  0.838064133458312
  0.001418761677878  0.236570299315725  0.601754663408956  0.762840624604670
  0.001338366684480  0.077148158667657  0.434657551614116  0.897285336132833
  0.001393700862676  0.306293666621073  0.490882658903762  0.815609223203975
  0.001415914757467  0.382247737952479  0.564876814909950  0.731300793659766
   total no. of   reducible points: 770; test:  1.00000000
  qrot: 

              1        2        3      
    1    1.0000   0.0000   0.0000
    2    0.0000   1.0000   0.0000
    3    0.0000   0.0000   1.0000
  me                     0   done genpts
  me                     1   done genpts
  me                     4   done genpts
  me                     5   done genpts
  me                     6   done genpts
  me                     7   done genpts
  me                     2   done genpts
  me                     3   done genpts
  me                     0   done uprt
  me                     1   done uprt
  me                     2   done uprt
  me                     3   done uprt
  me                     4   done uprt
  me                     5   done uprt
  me                     6   done uprt
  me                     7   done uprt
  me                     0  done mem
  me                     1  done mem
  me                     2  done mem
  me                     3  done mem
  me                     4  done mem
  me                     5  done mem
  me                     6  done mem
  me                     7  done mem
  dftinpanae: itol2e                     8  iaoacc                    14  tol_rho    1.0000000000000000E-010

            General Information
            -------------------
          SCF calculation type: DFT
          Wavefunction type:  spin polarized.
          No. of atoms     :     1
          No. of electrons :    14
           Alpha electrons :     8
            Beta electrons :     6
          Charge           :     0
          Spin multiplicity:     3
          Use of symmetry is: off; symmetry adaption is: off
          Maximum number of iterations:  50
          AO basis - number of functions:    59
                     number of shells:    16
          Convergence on energy requested:  1.00D-06
          Convergence on density requested:  1.00D-05
          Convergence on gradient requested:  5.00D-04

              XC Information
              --------------
                     Hartree-Fock (Exact) Exchange  1.000          
                     LC-wPBE(h)Exchange Functional  1.000          
            Perdew 1991 LDA Correlation Functional  1.000 local    
           PerdewBurkeErnz. Correlation Functional  1.000 non-local

           Range-Separation Parameters        
           ---------------------------
           Alpha           :  0.00
           Beta            :  1.00
           Gamma           :  0.30
           Short-Range HF  :     F

             Grid Information
             ----------------
          Grid used for XC integration:  fine      
          Radial quadrature: Mura-Knowles        
          Angular quadrature: Lebedev. 
          Tag              B.-S. Rad. Rad. Pts. Rad. Cut. Ang. Pts.
          ---              ---------- --------- --------- ---------
          Si                  1.10      123          11.0       770
          Grid pruning is: on 
          Number of quadrature shells:   123
          Spatial weights used:  Erf1

          Convergence Information
          -----------------------
          Convergence aids based upon iterative change in 
          total energy or number of iterations. 
          Levelshifting, if invoked, occurs when the 
          HOMO/LUMO gap drops below (HL_TOL):  1.00D-02
          DIIS, if invoked, will attempt to extrapolate 
          using up to (NFOCK): 10 stored Fock matrices.

                    Damping( 0%)  Levelshifting(0.5)       DIIS
                  --------------- ------------------- ---------------
          dE  on:    start            ASAP                start   
          dE off:    2 iters         50 iters            50 iters 


      Screening Tolerance Information
      -------------------------------
          Density screening/tol_rho:  1.00D-10
          AO Gaussian exp screening on grid/accAOfunc:  14
          CD Gaussian exp screening on grid/accCDfunc:  20
          XC Gaussian exp screening on grid/accXCfunc:  20
          Schwarz screening/accCoul:  1.00D-08



                         Geometry "geometry" -> "geometry"
                         ---------------------------------

 Output coordinates in angstroms (scale by  1.889725989 to convert to a.u.)

  No.       Tag          Charge          X              Y              Z
 ---- ---------------- ---------- -------------- -------------- --------------
    1 Si                  14.0000     0.00000000     0.00000000     0.00000000

      Atomic Mass 
      ----------- 

      Si                27.976930


 Effective nuclear repulsion energy (a.u.)       0.0000000000

            Nuclear Dipole moment (a.u.) 
            ----------------------------
        X                 Y               Z
 ---------------- ---------------- ----------------
     0.0000000000     0.0000000000     0.0000000000

  
  CAM type calculations without CDFIT are
  only available with the direct option.
  Forcing Direct SCF
  


     <<<<<<    Before call to DFT_SCF.    >>>>>>
     <<<<<< date:  May  8  time: 11:56:50 >>>>>>


 Setting tolerance for linear dependence to 1.00D-05



 Setting tolerance for linear dependence to 1.00D-05


 Setting tolerance for linear dependence to 1.00D-05

 Setting tolerance for linear dependence to 1.00D-05

 Setting tolerance for linear dependence to 1.00D-05
 Setting tolerance for linear dependence to 1.00D-05
 Setting tolerance for linear dependence to 1.00D-05
 Setting tolerance for linear dependence to 1.00D-05
  lindep tolerance =    1.0000000000000001E-005
  lindep tolerance =    1.0000000000000001E-005
  lindep tolerance =    1.0000000000000001E-005
  lindep tolerance =    1.0000000000000001E-005
  lindep tolerance =    1.0000000000000001E-005
  lindep tolerance =    1.0000000000000001E-005
  lindep tolerance =    1.0000000000000001E-005
  lindep tolerance =    1.0000000000000001E-005


     <<<<<<    Before 3c-2e initialize.   >>>>>>
     <<<<<< date:  May  8  time: 11:56:50 >>>>>>


 Setting fock-build task_bf   :      -1
                    maxquartet:   10000
                    maxeri    :  129600
                    maxscr    :       0
                    intacc    : 0.0D+00
                    denscreen : T
                    dentol    : 1.0D-06


      Superposition of Atomic Density Guess
      -------------------------------------

 Sum of atomic energies:        -288.84125368

      Non-variational initial energy
      ------------------------------

 Total energy =    -288.623326
 1-e energy   =    -400.502902
 2-e energy   =     111.879577
 HOMO         =      -0.075561
 LUMO         =      -0.075561


 Setting fock-build task_bf   :      -1
                    maxquartet:   10000
                    maxeri    :  129600
                    maxscr    :       0
                    intacc    : 0.0D+00
                    denscreen : T
                    dentol    : 1.0D-06


 Wrote molecular orbitals to ./si.movecs

  WARNING: movecs_in_org=atomic not equal to movecs_in=./si.movecs
   Time after variat. SCF:      0.8

 Setting fock-build task_bf   :      -1
                    maxquartet:   10000
                    maxeri    :  129600
                    maxscr    :       0
                    intacc    : 0.0D+00
                    denscreen : T
                    dentol    : 1.0D-06

   Time prior to 1st pass:      0.8


     <<<<<<      Before SCF iter loop.    >>>>>>
     <<<<<< date:  May  8  time: 11:56:50 >>>>>>

           DAMPING=T LEVELSHIFTING=F DIISING=T
          itol2e= 8 iAOacc=12 iXCacc=20


     <<<<<<            calling 1-e int    >>>>>>
     <<<<<< date:  May  8  time: 11:56:50 >>>>>>

    Kinetic Matrix Time:          0.0s

           Kinetic energy =    288.387444634151

    Potential Matrix Time:          0.0s


     <<<<<<    Before call to GETVXC.     >>>>>>
     <<<<<< date:  May  8  time: 11:56:50 >>>>>>



     <<<<<<    Before call to fock_2e.    >>>>>>
     <<<<<< date:  May  8  time: 11:56:50 >>>>>>



     <<<<<<     After call to fock_2e.    >>>>>>
     <<<<<< date:  May  8  time: 11:56:51 >>>>>>

    Fock_2e Build Time:          0.2s
  *** grid_quadv0:                    calc_type:                    1
  *** grid_quadv0:                    grid_written: F
  *** grid_quadv0:                    grad: T
  *** grid_quadv0:                    kske: F
  *** grid_quadv0:                    kslap: F
  *** grid_quadv0:                    do_scf: T
  *** grid_quadv0:                    calc_type:                    1
  *** grid_quadv0:                    grid_written: F
  *** grid_quadv0:                    grad: T
  *** grid_quadv0:                    kske: F
  *** grid_quadv0:                    kslap: F
  *** grid_quadv0:                    do_scf: T
  *** grid_quadv0:                    fde_option:                    0
  *** grid_quadv0:                    calc_type:                    1
  *** grid_quadv0:                    grid_written: F
  *** grid_quadv0:                    grad: T
  *** grid_quadv0:                    kske: F
  *** grid_quadv0:                    kslap: F
  *** grid_quadv0:                    do_scf: T
  *** grid_quadv0:                    fde_option:                    0
  *** grid_quadv0:                    n_per_rec:                 3070
  *** grid_quadv0:                    fde_option:                    0
  *** grid_quadv0:                    n_per_rec:                 3070
  *** grid_quadv0:                    calc_type:                    1
  *** grid_quadv0:                    grid_written: F
  *** grid_quadv0:                    grad: T
  *** grid_quadv0:                    kske: F
  *** grid_quadv0:                    kslap: F
  *** grid_quadv0:                    do_scf: T
  *** grid_quadv0:                    fde_option:                    0
  *** grid_quadv0:                    n_per_rec:                 3070
  *** grid_quadv0:                    n_per_rec:                 3070
  *** grid_quadv0:                    calc_type:                    1
  *** grid_quadv0:                    grid_written: F
  *** grid_quadv0:                    grad: T
  *** grid_quadv0:                    kske: F
  *** grid_quadv0:                    kslap: F
  *** grid_quadv0:                    do_scf: T
  *** grid_quadv0:                    fde_option:                    0
  *** grid_quadv0:                    n_per_rec:                 3070
  *** grid_quadv0:                    calc_type:                    1
  *** grid_quadv0:                    grid_written: F
  *** grid_quadv0:                    grad: T
  *** grid_quadv0:                    kske: F
  *** grid_quadv0:                    kslap: F
  *** grid_quadv0:                    do_scf: T
  *** grid_quadv0:                    fde_option:                    0
  *** grid_quadv0:                    n_per_rec:                 3070
  *** grid_quadv0:                    calc_type:                    1
  *** grid_quadv0:                    grid_written: F
  *** grid_quadv0:                    grad: T
  *** grid_quadv0:                    kske: F
  *** grid_quadv0:                    kslap: F
  *** grid_quadv0:                    do_scf: T
  *** grid_quadv0:                    fde_option:                    0
  *** grid_quadv0:                    n_per_rec:                 3070
  *** grid_quadv0:                    calc_type:                    1
  *** grid_quadv0:                    grid_written: F
  *** grid_quadv0:                    grad: T
  *** grid_quadv0:                    kske: F
  *** grid_quadv0:                    kslap: F
  *** grid_quadv0:                    do_scf: T
  *** grid_quadv0:                    fde_option:                    0
  *** grid_quadv0:                    n_per_rec:                 3070
   0: nuse=   8 avail= 12500000Mb on .
   1: nuse=   8 avail= 12500000Mb on .
   2: nuse=   8 avail= 12500000Mb on .
   3: nuse=   8 avail= 12500000Mb on .
   4: nuse=   8 avail= 12500000Mb on .
   5: nuse=   8 avail= 12500000Mb on .
   6: nuse=   8 avail= 12500000Mb on .
   7: nuse=   8 avail= 12500000Mb on .
 l_cube input   11.00

  atom type   l_cube   no. cubes   segmts   rad   sub
 ----------- -------- ----------- -------- ----- -----
        1     14.00        34         3      21     8

 Grid_pts file          = ./si.gridpts.0
 Record size in doubles =  12289        No. of grid_pts per rec  =   3070
 Max. records in memory =      6        Max. recs in file   = 126656358

 me   0 NQTOTC NQ/cube    8596     537
 me   1 NQTOTC NQ/cube    5139    2569
 me   2 NQTOTC NQ/cube    5086    1695
 me   3 NQTOTC NQ/cube    5652    2826
 me   4 NQTOTC NQ/cube    5055    2527
 me   5 NQTOTC NQ/cube    4201    1050
 me   6 NQTOTC NQ/cube    4542    2271
 me   7 NQTOTC NQ/cube    5247    1749

 XC quadr. integrated density :      14.000000 npts:    43418 nctrs:        1

    Fock_xc Build Time:          0.1s


     <<<<<<    Before call to GETVCOUL.   >>>>>>
     <<<<<< date:  May  8  time: 11:56:51 >>>>>>



     <<<<<<    End of parallel region.    >>>>>>
     <<<<<< date:  May  8  time: 11:56:51 >>>>>>

    Total Fock Matrix Build Time:          0.3s
 Etnew, Ecore, Ecoul, Exc(1), Exc(2), Totsic:   -289.21568008094454       -399.35931433266376        130.72250652567186       -20.578872273952623        0.0000000000000000        0.0000000000000000     
  delta =   -289.21568008094454     
  delta =   -289.21568008094454     
  delta =   -289.21568008094454     
  delta =   -289.21568008094454     


         Total DFT energy =     -289.215680080945
      One electron energy =     -399.359314332664
           Coulomb energy =      130.722506525672
    Exchange-Corr. energy =      -20.578872273953
 Nuclear repulsion energy =        0.000000000000

  delta =   -289.21568008094454     
  delta =   -289.21568008094454     
  delta =   -289.21568008094454     
  delta =   -289.21568008094454     
 Numeric. integr. density =       14.000000000251

     Total iterative time =      2.1s




     <<<<<<        calling diis driver    >>>>>>
     <<<<<< date:  May  8  time: 11:56:51 >>>>>>

 nhist                     1  pulay matrix 
   0.0000E+00
  -1.0000E+00   9.2656E-02


     <<<<<<         called diis driver    >>>>>>
     <<<<<< date:  May  8  time: 11:56:51 >>>>>>


 global array: fock transf[1:59,1:59],  handle: -940 

            1           2           3           4           5           6  
       ----------- ----------- ----------- ----------- ----------- -----------
   1       1.93714    -0.00000    -0.00000    -0.00000    -0.88890     0.31760
   2      -0.00000     0.56899    -0.00185     0.00140    -0.00000    -0.00000
   3      -0.00000    -0.00185     0.56894     0.00142    -0.00000    -0.00000
   4      -0.00000     0.00140     0.00142     0.56977    -0.00000    -0.00000
   5      -0.88890    -0.00000    -0.00000    -0.00000     2.83104    -1.06981
   6       0.31760    -0.00000    -0.00000    -0.00000    -1.06981     0.74338
   7       0.00000     0.32177     0.41554    -0.27277     0.00000     0.00000
   8      -0.00000     0.23781    -0.41397    -0.35013    -0.00000    -0.00000
   9       0.00000     0.43641    -0.08072     0.39185     0.00000     0.00000
  10       0.00000     0.00017     0.00010    -0.00002     0.00000     0.00000
  11      -0.55952    -0.00000    -0.00000    -0.00000     0.23104    -0.55262
  12       0.00000    -0.00019    -0.00011     0.00026     0.00000     0.00000
  13       0.00000     0.00005     0.00010     0.00002     0.00000     0.00000
  14      -0.00000    -0.00006    -0.00016     0.00005    -0.00000    -0.00000
  15      -0.00022     0.00000    -0.00000    -0.00000     0.00054    -0.00017
  16      -0.00002     0.00000    -0.00000     0.00000     0.00006    -0.00002
  17      -0.00025    -0.00000     0.00000     0.00000     0.00063    -0.00020
  18       0.00000    -0.01766     0.01261     0.01085     0.00000     0.00000
  19      -0.00000     0.00627     0.01927    -0.01299    -0.00000    -0.00000
  20      -0.00000    -0.01567    -0.00682    -0.01732    -0.00000    -0.00000
  21      -0.00000    -0.00024    -0.00004    -0.00012    -0.00000    -0.00000
  22      -0.00024     0.00000     0.00000     0.00000     0.00061    -0.00019
  23      -0.00004     0.00000     0.00000     0.00000     0.00010    -0.00003
  24      -0.00000    -0.00005    -0.00013    -0.00010    -0.00000    -0.00000
  25       0.00000    -0.00008    -0.00004     0.00021     0.00000     0.00000
  26       0.00000    -0.00008     0.00014     0.00025     0.00000     0.00000
  27      -0.00000    -0.04911     0.13317    -0.01849    -0.00000    -0.00000
  28      -0.00000     0.06766     0.00736    -0.12561    -0.00000    -0.00000
  29      -0.00000    -0.11584    -0.05171    -0.06578    -0.00000    -0.00000
  30      -0.00003     0.00000     0.00000    -0.00000    -0.00006    -0.00005
  31       0.00002     0.00000    -0.00000    -0.00000     0.00003     0.00003
  32      -0.00030    -0.00000     0.00000    -0.00000    -0.00055    -0.00041
  33      -0.00000    -0.03302    -0.02372    -0.03833    -0.00000    -0.00000
  34      -0.00000     0.04041     0.00452    -0.03781    -0.00000    -0.00000
  35      -0.00000    -0.01951     0.04981    -0.01429    -0.00000    -0.00000
  36      -0.02990    -0.00000    -0.00000    -0.00000     0.14544    -0.23422
  37       0.00000    -0.00775    -0.05161     0.02766     0.00000     0.00000
  38       0.00000     0.03802     0.01664     0.04268     0.00000     0.00000
  39      -0.00000     0.04475    -0.02424    -0.03074    -0.00000    -0.00000
  40      -0.00008     0.00000     0.00000     0.00000    -0.00014    -0.00011
  41      -0.00021    -0.00000    -0.00000    -0.00000    -0.00039    -0.00029
  42      -0.00016    -0.00000     0.00000     0.00000     0.00002     0.00002
  43      -0.00033     0.00000    -0.00000     0.00000     0.00004     0.00004
  44      -0.00083     0.00000    -0.00000     0.00000     0.00009     0.00009
  45      -0.01987    -0.00000    -0.00000    -0.00000    -0.10173     0.07549
  46      -0.00000     0.03286     0.02067     0.03291    -0.00000    -0.00000
  47      -0.00000    -0.01459    -0.03448     0.03542    -0.00000    -0.00000
  48       0.00000    -0.03633     0.03167     0.01623     0.00000     0.00000
  49      -0.00056     0.00000     0.00000     0.00000     0.00006     0.00006
  50      -0.00038    -0.00000    -0.00000    -0.00000     0.00004     0.00004
  51       0.04873    -0.00000    -0.00000    -0.00000     0.06144    -0.06145
  52      -0.00000    -0.01201    -0.03321     0.02726    -0.00000    -0.00000
  53      -0.00000    -0.03095     0.02657     0.01849    -0.00000    -0.00000
  54       0.00000    -0.02992    -0.01384    -0.03028     0.00000     0.00000
  55      -0.04429     0.00000     0.00000     0.00000     0.12918    -0.08262
  56      -0.00000    -0.00037    -0.00031     0.00028    -0.00000    -0.00000
  57      -0.00000    -0.00033    -0.00010    -0.00055    -0.00000    -0.00000
  58       0.00000     0.00036    -0.00051    -0.00013     0.00000     0.00000
  59       0.02991     0.00000     0.00000     0.00000    -0.05211     0.04701

            7           8           9          10          11          12  
       ----------- ----------- ----------- ----------- ----------- -----------
   1       0.00000    -0.00000     0.00000     0.00000    -0.55952     0.00000
   2       0.32177     0.23781     0.43641     0.00017    -0.00000    -0.00019
   3       0.41554    -0.41397    -0.08072     0.00010    -0.00000    -0.00011
   4      -0.27277    -0.35013     0.39185    -0.00002    -0.00000     0.00026
   5       0.00000    -0.00000     0.00000     0.00000     0.23104     0.00000
   6       0.00000    -0.00000     0.00000     0.00000    -0.55262     0.00000
   7       3.80803    -0.00050    -0.00034    -0.00039     0.00000     0.00054
   8      -0.00050     3.81337    -0.00002    -0.00001    -0.00000     0.00021
   9      -0.00034    -0.00002     3.81339    -0.00029     0.00000    -0.00005
  10      -0.00039    -0.00001    -0.00029     1.03718     0.00000    -0.00030
  11       0.00000    -0.00000     0.00000     0.00000     2.69129     0.00000
  12       0.00054     0.00021    -0.00005    -0.00030     0.00000     1.03576
  13      -0.00017     0.00015    -0.00012     0.00038     0.00000    -0.00040
  14       0.00031     0.00007     0.00002    -0.00027    -0.00000    -0.00008
  15      -0.00000    -0.00000    -0.00000    -0.00000     0.00056     0.00000
  16       0.00000    -0.00000    -0.00000     0.00000     0.00006    -0.00000
  17       0.00000     0.00000    -0.00000    -0.00000     0.00065    -0.00000
  18       0.08842     0.35901     0.12142     0.00082     0.00000    -0.00053
  19      -0.36896     0.05432     0.10813    -0.00052    -0.00000     0.00032
  20       0.08287    -0.14006     0.35362     0.00213    -0.00000     0.00014
  21       0.00060     0.00008    -0.00011     0.35672    -0.00000    -0.00041
  22      -0.00000     0.00000    -0.00000    -0.00000     0.00063    -0.00000
  23      -0.00000     0.00000    -0.00000    -0.00000     0.00011    -0.00000
  24       0.00038     0.00015    -0.00002     0.00035    -0.00000    -0.03467
  25       0.00103     0.00003     0.00014     0.00046     0.00000    -0.22113
  26       0.00047    -0.00001     0.00008     0.00012     0.00000    -0.27714
  27      -0.42990     0.58289     0.38085     0.00026    -0.00000    -0.00034
  28      -0.57050    -0.55132     0.19606     0.00018    -0.00000     0.00121
  29       0.39439    -0.16335     0.69785     0.00052    -0.00000     0.00055
  30      -0.00000    -0.00000     0.00000    -0.00000     0.00007     0.00000
  31       0.00000    -0.00000    -0.00000    -0.00000    -0.00004    -0.00000
  32      -0.00000    -0.00000     0.00000     0.00000     0.00065     0.00000
  33      -0.06580     0.10143    -0.18080    -0.00095    -0.00000    -0.00016
  34       0.16636     0.13809     0.01579     0.00040    -0.00000    -0.00010
  35       0.12248    -0.13411    -0.12002    -0.00004    -0.00000    -0.00029
  36       0.00000    -0.00000     0.00000     0.00000    -0.02361     0.00000
  37      -0.35968     0.11076     0.13105     0.00008     0.00000     0.00008
  38       0.08655    -0.14516     0.36325    -0.00015     0.00000     0.00007
  39       0.14661     0.35673     0.10722     0.00001    -0.00000    -0.00039
  40      -0.00000     0.00000    -0.00000    -0.00000     0.00017    -0.00000
  41       0.00000    -0.00000     0.00000     0.00000     0.00046     0.00000
  42       0.00000     0.00000     0.00000     0.00000    -0.00004    -0.00000
  43       0.00000    -0.00000    -0.00000     0.00000    -0.00009    -0.00000
  44       0.00000    -0.00000    -0.00000    -0.00000    -0.00023    -0.00000
  45       0.00000    -0.00000     0.00000     0.00000     1.20316     0.00000
  46      -0.01648     0.01987    -0.04143    -0.00125    -0.00000    -0.00105
  47       0.04617     0.00262    -0.01662    -0.00013    -0.00000    -0.00102
  48       0.00489     0.04432     0.01945     0.00052     0.00000    -0.00128
  49      -0.00000     0.00000    -0.00000    -0.00000    -0.00015    -0.00000
  50       0.00000    -0.00000     0.00000     0.00000    -0.00010     0.00000
  51       0.00000    -0.00000     0.00000     0.00000    -0.62041     0.00000
  52      -0.35275     0.01935     0.11530     0.00005    -0.00000    -0.00052
  53      -0.05548    -0.35214    -0.11910     0.00022    -0.00000    -0.00069
  54      -0.10010     0.13083    -0.33765     0.00065     0.00000     0.00044
  55      -0.00000     0.00000    -0.00000    -0.00000    -0.17372    -0.00000
  56      -0.05525    -0.00915    -0.00415     0.00010    -0.00000    -0.00033
  57       0.00040     0.02475    -0.05617     0.00102    -0.00000     0.00108
  58      -0.01044     0.05545     0.02440    -0.00038     0.00000     0.00094
  59      -0.00000     0.00000    -0.00000    -0.00000    -0.00120    -0.00000

           13          14          15          16          17          18  
       ----------- ----------- ----------- ----------- ----------- -----------
   1       0.00000    -0.00000    -0.00022    -0.00002    -0.00025     0.00000
   2       0.00005    -0.00006     0.00000     0.00000    -0.00000    -0.01766
   3       0.00010    -0.00016    -0.00000    -0.00000     0.00000     0.01261
   4       0.00002     0.00005    -0.00000     0.00000     0.00000     0.01085
   5       0.00000    -0.00000     0.00054     0.00006     0.00063     0.00000
   6       0.00000    -0.00000    -0.00017    -0.00002    -0.00020     0.00000
   7      -0.00017     0.00031    -0.00000     0.00000     0.00000     0.08842
   8       0.00015     0.00007    -0.00000    -0.00000     0.00000     0.35901
   9      -0.00012     0.00002    -0.00000    -0.00000    -0.00000     0.12142
  10       0.00038    -0.00027    -0.00000     0.00000    -0.00000     0.00082
  11       0.00000    -0.00000     0.00056     0.00006     0.00065     0.00000
  12      -0.00040    -0.00008     0.00000    -0.00000    -0.00000    -0.00053
  13       1.03704     0.00126     0.00000     0.00000    -0.00000    -0.00055
  14       0.00126     1.03864     0.00000     0.00000    -0.00000    -0.00139
  15       0.00000     0.00000     0.82251     0.00082    -0.00058     0.00000
  16       0.00000     0.00000     0.00082     0.82077    -0.00092     0.00000
  17      -0.00000    -0.00000    -0.00058    -0.00092     0.82133    -0.00000
  18      -0.00055    -0.00139     0.00000     0.00000    -0.00000     1.08073
  19      -0.00010     0.00008     0.00000     0.00000     0.00000     0.00052
  20       0.00134     0.00011     0.00000     0.00000     0.00000     0.00038
  21       0.00031    -0.00030     0.00000    -0.00000     0.00000     0.00027
  22      -0.00000     0.00000    -0.00013     0.00010     0.00099    -0.00000
  23       0.00000     0.00000    -0.00073     0.00129    -0.00038    -0.00000
  24       0.35477    -0.00650    -0.00000    -0.00000     0.00000    -0.00043
  25      -0.02729    -0.27920     0.00000     0.00000    -0.00000     0.00048
  26      -0.02182     0.22312    -0.00000    -0.00000    -0.00000    -0.00032
  27      -0.00038     0.00079     0.00000     0.00000    -0.00000     0.09017
  28       0.00029    -0.00029    -0.00000     0.00000     0.00000    -0.09187
  29       0.00030    -0.00010     0.00000     0.00000     0.00000     0.02465
  30       0.00000     0.00000    -0.17573     0.25921     0.17941     0.00000
  31       0.00000     0.00000    -0.19962    -0.25038     0.16572     0.00000
  32      -0.00000    -0.00000     0.24420    -0.01832     0.26636     0.00000
  33      -0.00065    -0.00022    -0.00000     0.00000     0.00000     0.03985
  34      -0.00022    -0.00055    -0.00000     0.00000     0.00000     0.31143
  35       0.00020     0.00026     0.00000     0.00000    -0.00000    -0.24476
  36       0.00000    -0.00000    -0.00108    -0.00012    -0.00126     0.00000
  37      -0.00003     0.00018    -0.00000    -0.00000    -0.00000     0.00282
  38      -0.00011    -0.00014    -0.00000    -0.00000    -0.00000    -0.00031
  39       0.00007     0.00031    -0.00000    -0.00000     0.00000     0.01664
  40       0.00000     0.00000     0.00010     0.00017     0.00010    -0.00000
  41       0.00000    -0.00000     0.00055    -0.00004     0.00047     0.00000
  42      -0.00000    -0.00000    -0.02523    -0.01005     0.03122    -0.00000
  43       0.00000     0.00000     0.00238     0.03771     0.01231     0.00000
  44       0.00000     0.00000     0.03122    -0.01011     0.02016     0.00000
  45       0.00000    -0.00000    -0.00011    -0.00001    -0.00013     0.00000
  46      -0.00085     0.00028     0.00000     0.00000     0.00000     0.00092
  47       0.00006    -0.00048     0.00000     0.00000     0.00000     0.00244
  48      -0.00062     0.00060    -0.00000    -0.00000     0.00000     0.02036
  49      -0.00000     0.00000    -0.00140     0.00042    -0.00098    -0.00000
  50      -0.00000    -0.00000    -0.00047    -0.00057    -0.00030    -0.00000
  51       0.00000    -0.00000    -0.00087    -0.00010    -0.00102     0.00000
  52       0.00011    -0.00032     0.00000     0.00000     0.00000    -0.01609
  53      -0.00031     0.00022    -0.00000    -0.00000     0.00000    -0.21514
  54       0.00040    -0.00011    -0.00000    -0.00000    -0.00000    -0.00451
  55      -0.00000     0.00000     0.00042     0.00005     0.00049    -0.00000
  56       0.00002    -0.00008     0.00000    -0.00000    -0.00000    -0.01950
  57       0.00065    -0.00009     0.00000     0.00000     0.00000     0.00440
  58       0.00055    -0.00056    -0.00000    -0.00000     0.00000     0.04574
  59      -0.00000     0.00000     0.00209     0.00024     0.00244    -0.00000

           19          20          21          22          23          24  
       ----------- ----------- ----------- ----------- ----------- -----------
   1      -0.00000    -0.00000    -0.00000    -0.00024    -0.00004    -0.00000
   2       0.00627    -0.01567    -0.00024     0.00000     0.00000    -0.00005
   3       0.01927    -0.00682    -0.00004     0.00000     0.00000    -0.00013
   4      -0.01299    -0.01732    -0.00012     0.00000     0.00000    -0.00010
   5      -0.00000    -0.00000    -0.00000     0.00061     0.00010    -0.00000
   6      -0.00000    -0.00000    -0.00000    -0.00019    -0.00003    -0.00000
   7      -0.36896     0.08287     0.00060    -0.00000    -0.00000     0.00038
   8       0.05432    -0.14006     0.00008     0.00000     0.00000     0.00015
   9       0.10813     0.35362    -0.00011    -0.00000    -0.00000    -0.00002
  10      -0.00052     0.00213     0.35672    -0.00000    -0.00000     0.00035
  11      -0.00000    -0.00000    -0.00000     0.00063     0.00011    -0.00000
  12       0.00032     0.00014    -0.00041    -0.00000    -0.00000    -0.03467
  13      -0.00010     0.00134     0.00031    -0.00000     0.00000     0.35477
  14       0.00008     0.00011    -0.00030     0.00000     0.00000    -0.00650
  15       0.00000     0.00000     0.00000    -0.00013    -0.00073    -0.00000
  16       0.00000     0.00000    -0.00000     0.00010     0.00129    -0.00000
  17       0.00000     0.00000     0.00000     0.00099    -0.00038     0.00000
  18       0.00052     0.00038     0.00027    -0.00000    -0.00000    -0.00043
  19       1.07939     0.00008    -0.00030     0.00000     0.00000    -0.00013
  20       0.00008     1.08079     0.00107     0.00000     0.00000     0.00066
  21      -0.00030     0.00107     0.64408     0.00000     0.00000     0.00095
  22       0.00000     0.00000     0.00000     0.82059     0.00080     0.00000
  23       0.00000     0.00000     0.00000     0.00080     0.82225    -0.00000
  24      -0.00013     0.00066     0.00095     0.00000    -0.00000     0.64324
  25      -0.00026    -0.00040     0.00090    -0.00000    -0.00000    -0.00033
  26      -0.00012    -0.00019     0.00011    -0.00000    -0.00000     0.00047
  27       0.09636     0.00727     0.00037     0.00000     0.00000    -0.00022
  28       0.08222     0.04095     0.00029     0.00000     0.00000     0.00028
  29      -0.03142     0.12326     0.00042     0.00000     0.00000     0.00019
  30      -0.00000    -0.00000     0.00000     0.00000    -0.00013     0.00000
  31       0.00000     0.00000     0.00000    -0.00011     0.00008    -0.00000
  32      -0.00000    -0.00000    -0.00000     0.00069     0.00025     0.00000
  33       0.04943    -0.39284    -0.00043     0.00000     0.00000    -0.00043
  34      -0.24703     0.00093    -0.00026     0.00000     0.00000    -0.00054
  35      -0.30729    -0.06402    -0.00025     0.00000     0.00000     0.00061
  36      -0.00000    -0.00000    -0.00000    -0.00122    -0.00021    -0.00000
  37       0.01680     0.00025     0.00039    -0.00000    -0.00000     0.00043
  38       0.00019     0.01673    -0.00012    -0.00000    -0.00000    -0.00011
  39      -0.00220    -0.00029    -0.00013     0.00000     0.00000     0.00015
  40       0.00000     0.00000     0.00000     0.18143    -0.31194    -0.00000
  41      -0.00000    -0.00000    -0.00000     0.31261     0.18102    -0.00000
  42      -0.00000     0.00000    -0.00000     0.00011    -0.00015     0.00000
  43       0.00000     0.00000    -0.00000    -0.00048     0.00046    -0.00000
  44       0.00000     0.00000     0.00000    -0.00155    -0.00093    -0.00000
  45      -0.00000    -0.00000    -0.00000    -0.00012    -0.00002     0.00000
  46       0.00230    -0.01898    -0.00072     0.00000     0.00000    -0.00043
  47      -0.02081    -0.00269    -0.00030     0.00000     0.00000    -0.00005
  48       0.00471     0.00101     0.00029    -0.00000    -0.00000    -0.00033
  49       0.00000     0.00000     0.00000     0.02813     0.02860     0.00000
  50      -0.00000    -0.00000    -0.00000     0.02670    -0.02952     0.00000
  51      -0.00000    -0.00000    -0.00000    -0.00099    -0.00017    -0.00000
  52       0.21358     0.01249     0.00016     0.00000     0.00000     0.00018
  53      -0.01577     0.00368     0.00016     0.00000     0.00000    -0.00012
  54       0.01204    -0.21605     0.00039    -0.00000    -0.00000     0.00022
  55       0.00000     0.00000     0.00000     0.00047     0.00008     0.00000
  56       0.04412    -0.01095    -0.00109     0.00000     0.00000    -0.00073
  57      -0.00949    -0.04989     0.00064     0.00000     0.00000     0.00035
  58       0.01856     0.00002    -0.00033     0.00000    -0.00000     0.00017
  59       0.00000     0.00000     0.00000     0.00237     0.00040     0.00000

           25          26          27          28          29          30  
       ----------- ----------- ----------- ----------- ----------- -----------
   1       0.00000     0.00000    -0.00000    -0.00000    -0.00000    -0.00003
   2      -0.00008    -0.00008    -0.04911     0.06766    -0.11584     0.00000
   3      -0.00004     0.00014     0.13317     0.00736    -0.05171     0.00000
   4       0.00021     0.00025    -0.01849    -0.12561    -0.06578    -0.00000
   5       0.00000     0.00000    -0.00000    -0.00000    -0.00000    -0.00006
   6       0.00000     0.00000    -0.00000    -0.00000    -0.00000    -0.00005
   7       0.00103     0.00047    -0.42990    -0.57050     0.39439    -0.00000
   8       0.00003    -0.00001     0.58289    -0.55132    -0.16335    -0.00000
   9       0.00014     0.00008     0.38085     0.19606     0.69785     0.00000
  10       0.00046     0.00012     0.00026     0.00018     0.00052    -0.00000
  11       0.00000     0.00000    -0.00000    -0.00000    -0.00000     0.00007
  12      -0.22113    -0.27714    -0.00034     0.00121     0.00055     0.00000
  13      -0.02729    -0.02182    -0.00038     0.00029     0.00030     0.00000
  14      -0.27920     0.22312     0.00079    -0.00029    -0.00010     0.00000
  15       0.00000    -0.00000     0.00000    -0.00000     0.00000    -0.17573
  16       0.00000    -0.00000     0.00000     0.00000     0.00000     0.25921
  17      -0.00000    -0.00000    -0.00000     0.00000     0.00000     0.17941
  18       0.00048    -0.00032     0.09017    -0.09187     0.02465     0.00000
  19      -0.00026    -0.00012     0.09636     0.08222    -0.03142    -0.00000
  20      -0.00040    -0.00019     0.00727     0.04095     0.12326    -0.00000
  21       0.00090     0.00011     0.00037     0.00029     0.00042     0.00000
  22      -0.00000    -0.00000     0.00000     0.00000     0.00000     0.00000
  23      -0.00000    -0.00000     0.00000     0.00000     0.00000    -0.00013
  24      -0.00033     0.00047    -0.00022     0.00028     0.00019     0.00000
  25       0.64497    -0.00002    -0.00000    -0.00021    -0.00036     0.00000
  26      -0.00002     0.64386     0.00064    -0.00066    -0.00043     0.00000
  27      -0.00000     0.00064     1.25706    -0.00190     0.00122    -0.00000
  28      -0.00021    -0.00066    -0.00190     1.25592     0.00204    -0.00000
  29      -0.00036    -0.00043     0.00122     0.00204     1.25786    -0.00000
  30       0.00000     0.00000    -0.00000    -0.00000    -0.00000     0.52868
  31       0.00000    -0.00000     0.00000    -0.00000     0.00000     0.00084
  32       0.00000     0.00000    -0.00000    -0.00000    -0.00000    -0.00049
  33       0.00068    -0.00009     0.01757    -0.04922    -0.15561    -0.00000
  34      -0.00021    -0.00097     0.01317    -0.15568     0.05011    -0.00000
  35       0.00025     0.00024    -0.16405    -0.01751    -0.01298    -0.00000
  36       0.00000     0.00000    -0.00000    -0.00000    -0.00000     0.00013
  37       0.00077     0.00025     0.44357     0.28271    -0.11529     0.00000
  38       0.00001    -0.00031     0.02686     0.16694     0.51248     0.00000
  39      -0.00021     0.00054     0.30451    -0.42761     0.12327    -0.00000
  40      -0.00000    -0.00000     0.00000     0.00000     0.00000    -0.00064
  41       0.00000     0.00000    -0.00000    -0.00000    -0.00000     0.00100
  42      -0.00000     0.00000    -0.00000     0.00000    -0.00000     0.07717
  43      -0.00000    -0.00000     0.00000     0.00000     0.00000     0.12237
  44       0.00000    -0.00000     0.00000     0.00000     0.00000    -0.04556
  45       0.00000     0.00000    -0.00000    -0.00000    -0.00000    -0.00001
  46       0.00043     0.00070     0.02377    -0.08428    -0.32973    -0.00000
  47       0.00024     0.00015    -0.20876    -0.26198     0.05040    -0.00000
  48       0.00019     0.00086     0.26733    -0.19941     0.07007    -0.00000
  49      -0.00000    -0.00000     0.00000     0.00000     0.00000     0.00076
  50       0.00000     0.00000    -0.00000    -0.00000    -0.00000    -0.00026
  51       0.00000     0.00000    -0.00000    -0.00000    -0.00000     0.00003
  52       0.00053     0.00019     0.48343     0.50099    -0.14804    -0.00000
  53       0.00021     0.00038    -0.52479     0.47110    -0.11133    -0.00000
  54      -0.00005    -0.00019    -0.02040    -0.18618    -0.68868     0.00000
  55      -0.00000    -0.00000     0.00000     0.00000     0.00000    -0.00021
  56      -0.00184    -0.00066     0.00510     0.00905    -0.00595     0.00000
  57      -0.00040    -0.00066    -0.00087    -0.00268    -0.00460    -0.00000
  58      -0.00031    -0.00083     0.00577    -0.00175     0.00016    -0.00000
  59      -0.00000    -0.00000     0.00000     0.00000     0.00000     0.00026

           31          32          33          34          35          36  
       ----------- ----------- ----------- ----------- ----------- -----------
   1       0.00002    -0.00030    -0.00000    -0.00000    -0.00000    -0.02990
   2       0.00000    -0.00000    -0.03302     0.04041    -0.01951    -0.00000
   3      -0.00000     0.00000    -0.02372     0.00452     0.04981    -0.00000
   4      -0.00000    -0.00000    -0.03833    -0.03781    -0.01429    -0.00000
   5       0.00003    -0.00055    -0.00000    -0.00000    -0.00000     0.14544
   6       0.00003    -0.00041    -0.00000    -0.00000    -0.00000    -0.23422
   7       0.00000    -0.00000    -0.06580     0.16636     0.12248     0.00000
   8      -0.00000    -0.00000     0.10143     0.13809    -0.13411    -0.00000
   9      -0.00000     0.00000    -0.18080     0.01579    -0.12002     0.00000
  10      -0.00000     0.00000    -0.00095     0.00040    -0.00004     0.00000
  11      -0.00004     0.00065    -0.00000    -0.00000    -0.00000    -0.02361
  12      -0.00000     0.00000    -0.00016    -0.00010    -0.00029     0.00000
  13       0.00000    -0.00000    -0.00065    -0.00022     0.00020     0.00000
  14       0.00000    -0.00000    -0.00022    -0.00055     0.00026    -0.00000
  15      -0.19962     0.24420    -0.00000    -0.00000     0.00000    -0.00108
  16      -0.25038    -0.01832     0.00000     0.00000     0.00000    -0.00012
  17       0.16572     0.26636     0.00000     0.00000    -0.00000    -0.00126
  18       0.00000     0.00000     0.03985     0.31143    -0.24476     0.00000
  19       0.00000    -0.00000     0.04943    -0.24703    -0.30729    -0.00000
  20       0.00000    -0.00000    -0.39284     0.00093    -0.06402    -0.00000
  21       0.00000    -0.00000    -0.00043    -0.00026    -0.00025    -0.00000
  22      -0.00011     0.00069     0.00000     0.00000     0.00000    -0.00122
  23       0.00008     0.00025     0.00000     0.00000     0.00000    -0.00021
  24      -0.00000     0.00000    -0.00043    -0.00054     0.00061    -0.00000
  25       0.00000     0.00000     0.00068    -0.00021     0.00025     0.00000
  26      -0.00000     0.00000    -0.00009    -0.00097     0.00024     0.00000
  27       0.00000    -0.00000     0.01757     0.01317    -0.16405    -0.00000
  28      -0.00000    -0.00000    -0.04922    -0.15568    -0.01751    -0.00000
  29       0.00000    -0.00000    -0.15561     0.05011    -0.01298    -0.00000
  30       0.00084    -0.00049    -0.00000    -0.00000    -0.00000     0.00013
  31       0.53118    -0.00022    -0.00000    -0.00000     0.00000    -0.00007
  32      -0.00022     0.52876    -0.00000    -0.00000    -0.00000     0.00110
  33      -0.00000    -0.00000     0.61878    -0.00110     0.00024    -0.00000
  34      -0.00000    -0.00000    -0.00110     0.61871    -0.00040    -0.00000
  35       0.00000    -0.00000     0.00024    -0.00040     0.61863    -0.00000
  36      -0.00007     0.00110    -0.00000    -0.00000    -0.00000     0.33512
  37      -0.00000     0.00000    -0.00747     0.02714     0.04558     0.00000
  38      -0.00000     0.00000     0.05132    -0.00129     0.00758     0.00000
  39      -0.00000    -0.00000    -0.00329    -0.04584     0.02431    -0.00000
  40       0.00080     0.00080     0.00000     0.00000     0.00000     0.00029
  41       0.00010    -0.00046    -0.00000    -0.00000    -0.00000     0.00077
  42       0.12973     0.02652     0.00000     0.00000    -0.00000    -0.00053
  43      -0.08171     0.03646     0.00000     0.00000     0.00000    -0.00108
  44      -0.00350     0.14496     0.00000    -0.00000     0.00000    -0.00271
  45       0.00001    -0.00012    -0.00000    -0.00000    -0.00000    -1.39376
  46      -0.00000    -0.00000     0.02861    -0.00213     0.00065    -0.00000
  47       0.00000    -0.00000    -0.00021     0.02312     0.02128    -0.00000
  48      -0.00000    -0.00000     0.00189     0.01972    -0.02193     0.00000
  49      -0.00007    -0.00038     0.00000     0.00000     0.00000    -0.00183
  50       0.00054     0.00049    -0.00000    -0.00000    -0.00000    -0.00124
  51      -0.00001     0.00022    -0.00000    -0.00000    -0.00000     0.78664
  52       0.00000    -0.00000     0.02001    -0.22715    -0.24546    -0.00000
  53      -0.00000    -0.00000    -0.04247    -0.24646     0.22389    -0.00000
  54      -0.00000     0.00000     0.33269    -0.01778     0.04359     0.00000
  55       0.00012    -0.00184     0.00000     0.00000     0.00000     0.53002
  56      -0.00000     0.00000     0.02017    -0.06328    -0.03097    -0.00000
  57       0.00000    -0.00000     0.08685     0.01737     0.02345    -0.00000
  58      -0.00000     0.00000     0.01240     0.04419    -0.07821     0.00000
  59      -0.00014     0.00225     0.00000     0.00000     0.00000    -0.11720

           37          38          39          40          41          42  
       ----------- ----------- ----------- ----------- ----------- -----------
   1       0.00000     0.00000    -0.00000    -0.00008    -0.00021    -0.00016
   2      -0.00775     0.03802     0.04475     0.00000    -0.00000    -0.00000
   3      -0.05161     0.01664    -0.02424     0.00000    -0.00000     0.00000
   4       0.02766     0.04268    -0.03074     0.00000    -0.00000     0.00000
   5       0.00000     0.00000    -0.00000    -0.00014    -0.00039     0.00002
   6       0.00000     0.00000    -0.00000    -0.00011    -0.00029     0.00002
   7      -0.35968     0.08655     0.14661    -0.00000     0.00000     0.00000
   8       0.11076    -0.14516     0.35673     0.00000    -0.00000     0.00000
   9       0.13105     0.36325     0.10722    -0.00000     0.00000     0.00000
  10       0.00008    -0.00015     0.00001    -0.00000     0.00000     0.00000
  11       0.00000     0.00000    -0.00000     0.00017     0.00046    -0.00004
  12       0.00008     0.00007    -0.00039    -0.00000     0.00000    -0.00000
  13      -0.00003    -0.00011     0.00007     0.00000     0.00000    -0.00000
  14       0.00018    -0.00014     0.00031     0.00000    -0.00000    -0.00000
  15      -0.00000    -0.00000    -0.00000     0.00010     0.00055    -0.02523
  16      -0.00000    -0.00000    -0.00000     0.00017    -0.00004    -0.01005
  17      -0.00000    -0.00000     0.00000     0.00010     0.00047     0.03122
  18       0.00282    -0.00031     0.01664    -0.00000     0.00000    -0.00000
  19       0.01680     0.00019    -0.00220     0.00000    -0.00000    -0.00000
  20       0.00025     0.01673    -0.00029     0.00000    -0.00000     0.00000
  21       0.00039    -0.00012    -0.00013     0.00000    -0.00000    -0.00000
  22      -0.00000    -0.00000     0.00000     0.18143     0.31261     0.00011
  23      -0.00000    -0.00000     0.00000    -0.31194     0.18102    -0.00015
  24       0.00043    -0.00011     0.00015    -0.00000    -0.00000     0.00000
  25       0.00077     0.00001    -0.00021    -0.00000     0.00000    -0.00000
  26       0.00025    -0.00031     0.00054    -0.00000     0.00000     0.00000
  27       0.44357     0.02686     0.30451     0.00000    -0.00000    -0.00000
  28       0.28271     0.16694    -0.42761     0.00000    -0.00000     0.00000
  29      -0.11529     0.51248     0.12327     0.00000    -0.00000    -0.00000
  30       0.00000     0.00000    -0.00000    -0.00064     0.00100     0.07717
  31      -0.00000    -0.00000    -0.00000     0.00080     0.00010     0.12973
  32       0.00000     0.00000    -0.00000     0.00080    -0.00046     0.02652
  33      -0.00747     0.05132    -0.00329     0.00000    -0.00000     0.00000
  34       0.02714    -0.00129    -0.04584     0.00000    -0.00000     0.00000
  35       0.04558     0.00758     0.02431     0.00000    -0.00000    -0.00000
  36       0.00000     0.00000    -0.00000     0.00029     0.00077    -0.00053
  37       0.54210     0.00021     0.00049    -0.00000     0.00000     0.00000
  38       0.00021     0.54286    -0.00001    -0.00000     0.00000    -0.00000
  39       0.00049    -0.00001     0.54233     0.00000    -0.00000     0.00000
  40      -0.00000    -0.00000     0.00000     0.52937    -0.00125     0.00034
  41       0.00000     0.00000    -0.00000    -0.00125     0.52957     0.00035
  42       0.00000    -0.00000     0.00000     0.00034     0.00035     0.19170
  43      -0.00000    -0.00000     0.00000    -0.00050     0.00045     0.00239
  44      -0.00000    -0.00000    -0.00000     0.00066    -0.00044     0.00229
  45       0.00000     0.00000    -0.00000    -0.00003    -0.00009    -0.00000
  46       0.03304    -0.25129     0.00428     0.00000    -0.00000     0.00000
  47      -0.23527    -0.03333     0.07371     0.00000    -0.00000     0.00000
  48       0.07545     0.01333     0.24155    -0.00000     0.00000     0.00000
[...]
  53       0.00000     0.04459     0.32913    -0.19474     0.01638    -0.99197
  54       0.00000     0.90610    -0.12730    -1.41975     0.22616    -1.14074
  55       0.00000     0.60242    -0.70475    -0.63755    -0.77900     0.69345
  56       0.00000     0.25001    -0.07987     0.02411     0.44842     0.05025
  57      -0.00000    -0.16074    -1.28885     0.36264     0.36792    -0.23447
  58       0.00000    -1.21319    -0.32929    -0.33884    -0.71463    -0.43054
  59      -0.00000    -0.22275     0.38196    -0.41157     0.11368     0.26873

           49          50          51          52          53          54  
       ----------- ----------- ----------- ----------- ----------- -----------
   1       0.00000     0.00000    -0.32059     0.00005     0.00001    -0.00000
   2       0.00000     0.00000    -2.05828     0.00034     0.00008    -0.00001
   3       0.00000     0.00000    -2.82554     0.00050     0.00013    -0.00002
   4       0.00000     0.00000   -12.29896     0.00157     0.00020    -0.00003
   5      -0.00000    -0.00000    40.62989    -0.00519    -0.00067     0.00010
   6      -0.00000    -0.00000    20.14093    -0.00282    -0.00047     0.00007
   7       0.00000    -0.00000     0.00006     0.34073    -1.37267     0.26124
   8       0.00000     0.00000    -0.00013    -0.68618    -0.39680    -1.20212
   9      -0.00000     0.00000    -0.00023    -1.22821    -0.15912     0.74407
  10       0.00000    -0.00000     0.00016     1.12283    -4.53242     0.86260
  11       0.00000     0.00000    -0.00038    -2.26122    -1.31018    -3.96929
  12      -0.00000     0.00000    -0.00067    -4.04744    -0.52540     2.45685
  13      -0.00000     0.00000    -0.00004    -0.00807     0.03117    -0.00593
  14      -0.00000    -0.00000     0.00004     0.01626     0.00901     0.02729
  15       0.00000    -0.00000     0.00008     0.02911     0.00361    -0.01689
  16       0.00000    -0.00001    -0.00007    -1.48295     5.91475    -1.12568
  17       0.00000     0.00000     0.00025     2.98644     1.70977     5.17987
  18      -0.00000     0.00000     0.00044     5.34554     0.68564    -3.20616
  19      -0.00000     0.00000     0.00000     0.05423    -0.21516     0.04095
  20      -0.00000    -0.00000    -0.00000    -0.10920    -0.06220    -0.18843
  21       0.00000    -0.00000    -0.00001    -0.19547    -0.02494     0.11663
  22      -0.00000     0.00000   -14.95827     0.00192     0.00025    -0.00004
  23       0.00000     0.00000    -0.00416     0.00000    -0.00000    -0.00000
  24      -0.00000     0.00000    -0.00745     0.00000    -0.00000     0.00000
  25       0.00000    -0.00000   -14.95512     0.00192     0.00025    -0.00004
  26       0.00000     0.00000     0.01501    -0.00000    -0.00000    -0.00000
  27      -0.00000    -0.00000   -14.94588     0.00192     0.00025    -0.00004
  28      -0.00000    -0.00000    -2.24814     0.00026     0.00002    -0.00000
  29      -0.00000    -0.00000     0.00510    -0.00000     0.00000     0.00000
  30       0.00000    -0.00000     0.00913    -0.00000    -0.00000    -0.00000
  31      -0.00000     0.00000    -2.25201     0.00026     0.00002    -0.00000
  32      -0.00000    -0.00000    -0.01839     0.00000     0.00000    -0.00000
  33       0.00000     0.00000    -2.26334     0.00026     0.00002    -0.00000
  34       0.00000    -0.00000    -9.00554     0.00123     0.00019    -0.00003
  35      -0.00000    -0.00000     0.00170    -0.00000     0.00000     0.00000
  36       0.00000    -0.00000     0.00304    -0.00000     0.00000    -0.00000
  37      -0.00000     0.00000    -9.00683     0.00123     0.00019    -0.00003
  38      -0.00000    -0.00000    -0.00612     0.00000     0.00000     0.00000
  39       0.00000     0.00000    -9.01059     0.00123     0.00019    -0.00003
  40      -0.23674     0.86211    -0.00008    -0.54276     2.16808    -0.41262
  41       2.23923     0.94342     0.00022     1.08806     0.64506     1.89522
  42      -1.44803     0.19042     0.00038     1.94756     0.28415    -1.18148
  43       1.11191    -1.89992    -0.00008    -0.52894     2.15947    -0.39392
  44       0.00000     2.64633     0.00001     0.05391    -0.05448     0.03138
  45      -0.40171    -0.68640    -0.00007    -0.49575     2.11729    -0.42002
  46      -0.52508    -0.40773     0.00022     1.08543     0.62270     1.88653
  47       1.18851     0.15629     0.00037     1.90666     0.23061    -1.22558
  48      -0.66400     0.27975     0.00019     0.99837     0.60328     1.88672
  49       0.08651    -0.11557     0.00037     1.90297     0.24500    -1.14564
  50       0.12076    -0.43975     0.00005     0.88277    -3.50884     0.66779
  51      -1.14223    -0.48124    -0.00016    -1.77558    -1.02215    -3.07139
  52       0.73864    -0.09713    -0.00029    -3.17819    -0.42080     1.90468
  53      -0.56718     0.96915     0.00004     0.87671    -3.50515     0.65978
  54      -0.00000    -1.34989    -0.00001    -0.02366     0.02333    -0.01344
  55       0.20491     0.35013     0.00004     0.86214    -3.48709     0.67096
  56       0.26784     0.20798    -0.00016    -1.77443    -1.01257    -3.06767
  57      -0.60626    -0.07972    -0.00028    -3.16024    -0.39788     1.92356
  58       0.33870    -0.14270    -0.00015    -1.73622    -1.00426    -3.06775
  59      -0.04413     0.05895    -0.00028    -3.15862    -0.40404     1.88934

           55          56          57          58          59  
       ----------- ----------- ----------- ----------- -----------
   1       1.11209     1.10561     0.00019    -0.00000     0.00002
   2       7.99808    10.59662     0.00186    -0.00001     0.00020
   3      10.81869    19.61021     0.00344    -0.00001     0.00037
   4      -5.08912    -7.86553    -0.00169    -0.00000    -0.00009
   5       0.48863    18.48124     0.00411     0.00001     0.00011
   6      -6.60397     2.89962     0.00104     0.00000     0.00001
   7      -0.00000     0.00012    -1.12117    -0.38118     4.61385
   8      -0.00001    -0.00041     2.25787     4.09930     0.88737
   9      -0.00002    -0.00072     4.04145    -2.39593     0.78421
  10      -0.00000     0.00025    -2.34305    -0.79696     9.64656
  11      -0.00002    -0.00084     4.71857     8.57075     1.85530
  12      -0.00003    -0.00149     8.44596    -5.00937     1.63961
  13       0.00000    -0.00009     0.89704     0.30497    -3.69137
  14       0.00001     0.00033    -1.80652    -3.27970    -0.70995
  15       0.00002     0.00059    -3.23356     1.91690    -0.62741
  16       0.00002    -0.00007     0.52900     0.17892    -2.16572
  17      -0.00004     0.00014    -1.06533    -1.92419    -0.41653
  18      -0.00007     0.00025    -1.90689     1.12464    -0.36810
  19      -0.00000     0.00000    -0.01580    -0.00534     0.06461
  20       0.00000    -0.00000     0.03183     0.05741     0.01243
  21       0.00001    -0.00000     0.05697    -0.03355     0.01098
  22      -1.02647    -8.44661    -0.00182    -0.00000    -0.00008
  23       0.00133     0.00126     0.00000     0.00000     0.00000
  24       0.00238     0.00225     0.00000    -0.00000     0.00000
  25      -1.02748    -8.44757    -0.00182    -0.00000    -0.00008
  26      -0.00479    -0.00453    -0.00000     0.00000     0.00000
  27      -1.03043    -8.45036    -0.00182    -0.00000    -0.00008
  28      -1.50471    -7.33554    -0.00135     0.00000    -0.00012
  29       0.00038    -0.00169    -0.00000    -0.00000    -0.00000
  30       0.00068    -0.00303    -0.00000     0.00000    -0.00000
  31      -1.50500    -7.33425    -0.00135     0.00000    -0.00012
  32      -0.00137     0.00610     0.00000    -0.00000     0.00000
  33      -1.50584    -7.33050    -0.00135     0.00000    -0.00012
  34       2.42654    -1.72514    -0.00053    -0.00000    -0.00000
  35      -0.00076    -0.00048    -0.00000     0.00000    -0.00000
  36      -0.00135    -0.00085    -0.00000     0.00000    -0.00000
  37       2.42712    -1.72477    -0.00053    -0.00000    -0.00000
  38       0.00273     0.00172     0.00000    -0.00000    -0.00000
  39       2.42880    -1.72371    -0.00053    -0.00000    -0.00000
  40      -0.00000    -0.00012     1.15127     0.39193    -4.74393
  41       0.00001     0.00042    -2.31890    -4.21501    -0.91077
  42       0.00003     0.00075    -4.15069     2.46324    -0.80341
  43      -0.00000    -0.00012     1.15241     0.39347    -4.74485
  44      -0.00000    -0.00000     0.00444     0.00222    -0.00501
  45      -0.00000    -0.00012     1.15514     0.39082    -4.74827
  46       0.00001     0.00042    -2.31912    -4.21597    -0.91263
  47       0.00003     0.00075    -4.15406     2.45893    -0.80765
  48       0.00001     0.00042    -2.32629    -4.21613    -0.91431
  49       0.00003     0.00075    -4.15437     2.46599    -0.80714
  50      -0.00001     0.00004    -0.31511    -0.10673     1.29193
  51       0.00002    -0.00009     0.63482     1.14793     0.24756
  52       0.00004    -0.00015     1.13629    -0.67075     0.21795
  53      -0.00001     0.00004    -0.31574    -0.10760     1.29245
  54       0.00000     0.00000    -0.00243    -0.00125     0.00282
  55      -0.00001     0.00004    -0.31723    -0.10611     1.29437
  56       0.00002    -0.00009     0.63494     1.14847     0.24861
  57       0.00004    -0.00015     1.13813    -0.66833     0.22034
  58       0.00002    -0.00009     0.63886     1.14856     0.24956
  59       0.00004    -0.00015     1.13830    -0.67230     0.22005
  int_init: cando_txs set to always be  F
                                NWChem TDDFT Module
                                -------------------


            General Information
            -------------------
           No. of orbitals :     118
            Alpha orbitals :      59
             Beta orbitals :      59
        Alpha frozen cores :       0
         Beta frozen cores :       0
     Alpha frozen virtuals :       0
      Beta frozen virtuals :       0
         Spin multiplicity :       3
    Number of AO functions :      59
        Use of symmetry is : off
      Symmetry adaption is : off
         Schwarz screening :  0.10D-07

              XC Information
              --------------
              Hartree-Fock (Exact) Exchange   1.00          
              LC-wPBE(h)Exchange Functional   1.00          
     Perdew 1991 LDA Correlation Functional   1.00 local    
    PerdewBurkeErnz. Correlation Functional   1.00 non-local
           Alpha           :  0.00
           Beta            :  1.00
           Gamma           :  0.30

             TDDFT Information
             -----------------
          Calculation type : TDDFT             
         Wavefunction type : Unrestricted
          No. of electrons :      14
           Alpha electrons :       8
            Beta electrons :       6
              No. of roots :       5
          Max subspacesize :    5000
            Max iterations :     100
               Target root :       1
           Target symmetry : none
      Symmetry restriction : off
                 Algorithm : Optimal
        Davidson threshold :  0.10D-03

            Memory Information
            ------------------
          Available GA space size is       52428793038 doubles
          Available MA space size is        4194415148 doubles
          Length of a trial vector is          408     318
          Algorithm : Incore multiple tensor contraction
          Estimated peak GA usage is          15112068 doubles
          Estimated peak MA usage is             18000 doubles

    5 smallest eigenvalue differences (eV) 
--------------------------------------------------------
  No. Spin  Occ  Vir  Irrep   E(Occ)    E(Vir)   E(Diff)
--------------------------------------------------------
    1    1    8    9 a        -0.287    -0.052     6.388
    2    1    7    9 a        -0.287    -0.052     6.388
    3    1    8   10 a        -0.287     0.038     8.825
    4    1    7   10 a        -0.287     0.038     8.825
    5    1    8   11 a        -0.287     0.059     9.415
--------------------------------------------------------

  Entering Davidson iterations
  Unrestricted

  Iter   NTrls   NConv    DeltaV     DeltaE      Time   
  ----  ------  ------  ---------  ---------  --------- 
    1      5       0     0.66E-01   0.10+100        2.4
    2     15       0     0.35E-01   0.10E-01        3.7
    3     25       0     0.25E-01   0.19E-02        3.8
 ------------------------------------------------------------------------
 tddft_diagon: negative excitation energy                   0
 ------------------------------------------------------------------------
 ------------------------------------------------------------------------
  current input line : 
    23:  task tddft energy
 tddft_diagon: negative excitation energy                   0
 ------------------------------------------------------------------------
 ------------------------------------------------------------------------
  current input line : 
     0: 
 ------------------------------------------------------------------------
 ------------------------------------------------------------------------
 This type of error is most commonly associated with calculations not reaching convergence criteria
 tddft_diagon: negative excitation energy                   0
 ------------------------------------------------------------------------
 ------------------------------------------------------------------------
  current input line : 
     0: 
 ------------------------------------------------------------------------
 ------------------------------------------------------------------------
 This type of error is most commonly associated with calculations not reaching convergence criteria
 ------------------------------------------------------------------------
 For more information see the NWChem manual at https://nwchemgit.github.io


 tddft_diagon: negative excitation energy                   0
 ------------------------------------------------------------------------
 ------------------------------------------------------------------------
  current input line : 
     0: 
 ------------------------------------------------------------------------
 ------------------------------------------------------------------------
 This type of error is most commonly associated with calculations not reaching convergence criteria
 ------------------------------------------------------------------------
 For more information see the NWChem manual at https://nwchemgit.github.io


 For further details see manual section:                                                                                                                                                                                                                                                                
 tddft_diagon: negative excitation energy                   0
 ------------------------------------------------------------------------
 ------------------------------------------------------------------------
  current input line : 
     0: 
 ------------------------------------------------------------------------
 ------------------------------------------------------------------------
 This type of error is most commonly associated with calculations not reaching convergence criteria
 ------------------------------------------------------------------------
 For more information see the NWChem manual at https://nwchemgit.github.io


 For further details see manual section:                                                                                                                                                                                                                                                                
 tddft_diagon: negative excitation energy                   0
 ------------------------------------------------------------------------
 ------------------------------------------------------------------------
  current input line : 
     0: 
 ------------------------------------------------------------------------
 ------------------------------------------------------------------------
 This type of error is most commonly associated with calculations not reaching convergence criteria
 ------------------------------------------------------------------------
 For more information see the NWChem manual at https://nwchemgit.github.io


 For further details see manual section:                                                                                                                                                                                                                                                                
 tddft_diagon: negative excitation energy                   0
 ------------------------------------------------------------------------
 ------------------------------------------------------------------------
  current input line : 
     0: 
 ------------------------------------------------------------------------
 ------------------------------------------------------------------------
 This type of error is most commonly associated with calculations not reaching convergence criteria
 ------------------------------------------------------------------------
 For more information see the NWChem manual at https://nwchemgit.github.io


 For further details see manual section:                                                                                                                                                                                                                                                                
 tddft_diagon: negative excitation energy                   0
 ------------------------------------------------------------------------
 ------------------------------------------------------------------------
  current input line : 
     0: 
 ------------------------------------------------------------------------
 ------------------------------------------------------------------------
 This type of error is most commonly associated with calculations not reaching convergence criteria
 ------------------------------------------------------------------------
 For more information see the NWChem manual at https://nwchemgit.github.io


 For further details see manual section:                                                                                                                                                                                                                                                                
 ------------------------------------------------------------------------
 ------------------------------------------------------------------------
 This type of error is most commonly associated with calculations not reaching convergence criteria
 ------------------------------------------------------------------------
 For more information see the NWChem manual at https://nwchemgit.github.io


 For further details see manual section:                                                                                                                                                                                                                                                                
 ------------------------------------------------------------------------
 For more information see the NWChem manual at https://nwchemgit.github.io


 For further details see manual section:                                                                                                                                                                                                                                                                
 For further details see manual section:                                                                                                                                                                                                                                                                
